% Model:              ice_shelf_fwd5_5.mph
% Version:            COMSOL 5.5.0.359
% Date:               Jun 8 2021, 17:27
% Dimension:          2
% Nodes:              8080
% Expressions:        1
% Description:        Dependent variable H
% Length unit:        m
% x                       y                        H (1)
0                         0                        1200
799.9999999982422         0                        847.8403890819145
0                         50.000000000000064       1200
799.9999999982422         50                       856.7700800789579
0                         110.00000000000014       1200
799.9999999982422         110                      852.0875662026076
1599.9999999982606        0                        791.1386085014408
1599.9999999982606        50                       794.5872256574637
0                         182.00000000000026       1200
799.9999999982422         182                      840.5902067991397
2399.9999999982792        0                        773.1075519086488
2399.9999999982792        50                       773.696178989899
0                         268.4000000000004        1200
799.9999999982422         268.4                    827.9338400905115
3199.9999999982974        0                        761.2707140804827
3199.9999999982974        50                       761.1755293781847
0                         372.0800000000006        1200
799.9999999982422         372.08                   818.8354640587866
3999.999999998316         0                        750.7149535504901
3999.999999998316         50                       750.5242418847395
0                         496.4960000000009        1200
799.9999999982422         496.496                  816.0931949285301
4799.999999998335         0                        740.6726277482544
4799.999999998335         50                       740.5069594706929
0                         645.7952000000012        1200
799.9999999982422         645.7952                 820.6695248326048
5599.999999998353         0                        731.0024602665449
5599.999999998353         50                       730.878659657419
0                         824.9542400000008        1200
799.9999999982422         824.95424                832.108524827992
6399.999999998371         0                        721.657253466667
6399.999999998371         50                       721.572454707147
799.9999999987915         1114.1220450622031       855.3533572336805
0                         1118.5991439753502       1200
7199.99999999839          0                        712.6039187299031
7199.99999999839          50                       712.5525263258537
781.7627693459491         1531.9515216083526       889.7848587408921
0                         1584.0840731537774       1200
7999.999999998408         0                        703.8122223902008
7999.999999998408         50                       703.7890534235578
767.0709667351003         2100.052339826701        926.8230126252469
0                         2190.7977733684256       1200
8799.999999998427         0                        695.254128662048
8799.999999998427         50                       695.2548481961326
0                         2953.871797784037        1200
816.3495062675902         2826.2761928641717       954.5391104973255
9599.999999998445         0                        686.9041786143248
9599.999999998445         50                       686.9252390066604
832.0094048632673         3707.4344916005803       984.6494495985236
0                         3927.715947133922        1200
10399.999999998463        0                        678.7396644614134
10399.999999998463        50                       678.7781718553721
0                         4746.946970992898        1200
799.9639322235964         4711.656197659465        1019.4259160055014
11199.999999998483        0                        670.7405666289183
11199.999999998483        50                       670.7941573665083
0                         5563.204709031168        1200
799.9999999995179         5563.069385372282        1042.5693855786567
11999.999999998501        0                        662.8894256188233
11999.999999998501        50                       662.9561398320905
0                         6353.466774504104        1200
799.9999999995346         6353.368072169113        1061.9451424592503
12799.99999999852         0                        655.1707970416774
12799.99999999852         50                       655.2490615497495
0                         7145.257338404617        1200
799.9999999995512         7145.187333422622        1079.3581682261897
13599.999999998538        0                        647.5717230535606
13599.999999998538        50                       647.6601961633493
0                         7937.867294904695        1200
799.9999999995623         7937.818885089188        1094.7354817974363
14399.999999998556        0                        640.0806706629255
14399.999999998556        50                       640.1781945643539
0                         8730.929363666048        1200
799.9999999995679         8730.896662711353        1108.0734040525565
15199.999999998574        0                        632.6868975901381
15199.999999998574        50                       632.7926105085992
0                         9524.245521643654        1200
799.9999999995734         9524.223911838211        1119.4508735546408
15999.999999998594        0                        625.3828671993563
15999.999999998594        50                       625.495868914801
0                         10317.705979092167       1200
799.9999999995734         10317.691991196083       1129.0132406384564
16799.99999999861         0                        618.1595151081004
16799.99999999861         50                       618.2792211288319
0                         11111.24876356568        1200
799.9999999995789         11111.239884404944       1136.9466389810693
17599.99999999863         0                        611.0110183074036
17599.99999999863         50                       611.1367859336316
0                         11904.838535779005       1200
799.99999999959           11904.833002160854       1143.4536579925448
18399.99999999865         0                        603.931054437571
18399.99999999865         50                       604.0623952154035
0                         12698.455055631186       1200
799.9999999995956         12698.451665799243       1148.7351720875035
19199.99999999867         0                        596.9141398320556
19199.99999999867         50                       597.0506531405408
0                         13492.086729577095       1200
799.9999999996122         13492.084685868238       1152.9790830733295
19999.999999998687        0                        589.9558487203262
19999.999999998687        50                       590.0971720116844
0                         14285.726936277473       1200
799.9999999996122         14285.725722042333       1156.3547016893397
20799.999999998705        0                        583.0522195190799
20799.999999998705        50                       583.1979519493093
0                         15079.371913260751       1200
799.9999999996234         15079.371201342976       1159.0109443136594
21599.999999998723        0                        576.1982690543481
21599.999999998723        50                       576.3482513999538
0                         15873.019536486989       1200
799.9999999996345         15873.019123987873       1161.0767374946852
22399.99999999874         0                        569.3914772262285
22399.99999999874         50                       569.5454144337347
0                         16666.66861582688        1200
799.9999999996455         16666.668379280578       1162.6624957158517
23199.99999999876         0                        562.6286333627679
23199.99999999876         50                       562.786293442524
0                         17460.318489815734       1200
799.9999999996567         17460.31835537309        1163.8619921597895
23999.999999998778        0                        555.9065585563416
23999.999999998778        50                       556.0677866968099
0                         18253.96879390483        1200
799.9999999996622         18253.968718065393       1164.7542721456655
24799.999999998796        0                        549.2227057109511
24799.999999998796        50                       549.3873548557289
0                         19047.6193288926         1200
799.9999999996733         19047.61928637951        1165.4054548068993
25599.999999998814        0                        542.574468871117
25599.999999998814        50                       542.7424317925213
0                         19841.26998686148        1200
799.9999999996844         19841.269963145605       1165.8703643295205
26399.999999998832        0                        535.9597845987145
26399.999999998832        50                       536.1309315421397
0                         20634.920709813185       1200
799.9999999996844         20634.92069665555        1166.1939702088414
27199.99999999885         0                        529.3764242629877
27199.99999999885         50                       529.5506497011181
0                         21428.571466882328       1200
799.9999999996955         21428.571459571725       1166.4126291168648
27999.99999999887         0                        522.822227009301
27999.99999999887         50                       522.9995071144652
0                         22222.222241630665       1200
799.9999999997011         22222.22223768271        1166.5551268708516
28799.99999999889         0                        516.2952417590103
28799.99999999889         50                       516.4755206943067
0                         23015.873025643235       1200
799.9999999997011         23015.87302334309        1166.6435239311277
29599.99999999891         0                        509.79414852322975
29599.99999999891         50                       509.9773410577356
0                         23809.5238139669         1200
799.9999999997177         23809.523813091753       1166.6938122768797
30399.999999998927        0                        503.3171393635171
30399.999999998927        50                       503.50322586037964
0                         24603.17460485927        1200
799.9999999997289         24603.174603964315       1166.716394258677
31199.999999998945        0                        496.8623283918958
31199.999999998945        50                       497.05134124672304
0                         25396.825395139687       1200
799.9999999997399         25396.825396035074       1166.7163943375988
31999.999999998963        0                        490.42869048786565
31999.999999998963        50                       490.6206014151002
0                         26190.47618603211        1200
799.9999999997455         26190.476186907643       1166.6938125151612
32799.99999999898         0                        484.01466377223335
32799.99999999898         50                       484.20945376326483
0                         26984.126974355764       1200
799.999999999751          26984.126976656327       1166.643524333339
33599.999999998996        0                        477.6186728676391
33599.999999998996        50                       477.8164048993363
0                         27777.777758368346       1200
799.9999999997622         27777.777762316713       1166.5551274446902
34399.99999999902         0                        471.2397174750052
34399.99999999902         50                       471.4403915038423
0                         28571.428533116734       1200
799.9999999997788         28571.428540427692       1166.4126298732529
35199.99999999904         0                        464.8765031453189
35199.99999999904         50                       465.0801615960964
0                         29365.07929018588        1200
799.9999999997788         29365.079303343882       1166.19397116202
35999.999999999054        0                        458.5275240847681
35999.999999999054        50                       458.7342503760592
0                         30158.7300131376         1200
799.9999999997899         30158.730036853838       1165.8703654970927
36799.999999999076        0                        452.1921261767899
36799.999999999076        50                       452.40194934802975
0                         30952.380671106486       1200
799.9999999997955         30952.380713619947       1165.4054562097651
37599.99999999909         0                        445.86962058655877
37599.99999999909         50                       446.08256621283033
0                         31746.031206094216       1200
799.9999999997955         31746.03128193407        1164.754273807791
38399.99999999911         0                        439.55784059803904
38399.99999999911         50                       439.7740784154166
0                         32539.68151018333        1200
799.9999999998176         32539.681644626362       1163.8619941077543
39199.99999999913         0                        433.2567190322314
39199.99999999913         50                       433.47628748667694
0                         33333.33138417217        1200
799.9999999998288         33333.33162071887        1162.6624979781654
39999.99999999915         0                        426.9653617987148
39999.99999999915         50                       427.18832060335035
0                         34126.98046351209        1200
799.9999999998288         34126.98087601156        1161.076740100913
40799.99999999916         0                        420.68238699056303
40799.99999999916         50                       420.9088713763493
799.9999999998398         34920.62879865647        1159.0109472934682
0                         34920.62808673832        1200
41599.999999999185        0                        414.40669062999086
41599.999999999185        50                       414.6368953301007
799.999999999851          35714.274277957134       1156.3547050716747
0                         35714.27306372156        1200
42399.9999999992          0                        408.1383967424685
42399.9999999992          50                       408.3723346040265
0                         36507.91327042197        1200
799.9999999998621         36507.9153141312         1152.979086886002
43199.99999999922         0                        401.87612161095575
43199.99999999922         50                       402.11401415733036
0                         37301.54494436784        1200
799.9999999998676         37301.54833420018        1148.7351763577317
43999.99999999924         0                        395.61947769503814
43999.99999999924         50                       395.8614629740595
0                         38095.16146422003        1200
799.9999999998676         38095.16699783856        1143.4536627500654
44799.99999999926         0                        389.3675342919956
44799.99999999926         50                       389.6137693967354
0                         38888.751236433294       1200
799.9999999998787         38888.76011559445        1136.9466442686696
45599.99999999928         0                        383.119611962389
45599.99999999928         50                       383.3703122270743
0                         39682.294020906775       1200
799.9999999998843         39682.30800880332        1129.0132465400095
46399.999999999294        0                        376.87541034822374
46399.999999999294        50                       377.1307393433279
0                         40475.75447835525        1200
799.9999999998843         40475.776088161154       1119.4508802420569
47199.999999999316        0                        370.6339606401899
47199.999999999316        50                       370.8941969888744
0                         41269.07063633281        1200
799.9999999998954         41269.103337288          1108.073411780086
47999.99999999933         0                        364.39525191196174
47999.99999999933         50                       364.6606159234765
0                         42062.13270509416        1200
799.9999999999176         42062.18111491014        1094.7354906512794
48799.99999999935         0                        358.1585698356184
48799.99999999935         50                       358.4293606096258
0                         42854.7426615942         1200
799.9999999999231         42854.8126665767         1079.35817786722
49599.99999999937         0                        351.92391359425756
49599.99999999937         50                       352.20033633577896
0                         43646.53322549466        1200
799.9999999999287         43646.63192783015        1061.9451548207091
50399.99999999939         0                        345.6899396623009
50399.99999999939         50                       345.97256088226766
0                         44436.79529096755        1200
799.9999999999397         44436.93061462694        1042.569420323866
51199.9999999994          0                        339.458176284454
51199.9999999994          50                       339.7471766789229
0                         45253.05302900575        1200
799.9639322240367         45288.34380233968        1019.4260704323697
51999.999999999425        0                        333.22800492373335
51999.999999999425        50                       333.52371987268583
0                         46072.28405286463        1200
832.009404863693          46292.565508398264       984.6492703145785
52799.99999999944         0                        326.9978743393627
52799.99999999944         50                       327.30107586775495
816.3495062681039         47173.723807134804       954.5407498244286
0                         47046.1282022146         1200
53599.99999999946         0                        320.7701924164311
53599.99999999946         50                       321.0811774700484
0                         47809.20222663029        1200
767.0709667357058         47899.947660172635       926.8243602574394
54399.99999999948         0                        314.5443909794154
54399.99999999948         50                       314.863774024007
781.7627693467396         48468.04847839133        889.7858273743348
0                         48415.915926845235       1200
55199.9999999995          0                        308.3207540936817
55199.9999999995          50                       308.649215277028
799.9999999999866         48885.87795493768        855.3540418521245
0                         48881.4008560241         1200
55999.99999999952         0                        302.1001321498525
55999.99999999952         50                       302.43840489560534
799.9999999999999         49175.04576              832.1091803190598
0                         49175.04575999986        1200
56799.999999999534        0                        295.8834791508818
56799.999999999534        50                       296.23240152183297
0                         49354.204799999934       1200
799.9999999999999         49354.2048               820.670181962669
57599.999999999556        0                        289.6718269855187
57599.999999999556        50                       290.03232990724945
0                         49503.50399999995        1200
799.9999999999999         49503.504                816.0938462168209
58399.99999999957         0                        283.4665934626972
58399.99999999957         50                       283.8397703117721
0                         49627.91999999996        1200
799.9999999999999         49627.92                 818.836105221056
59199.99999999959         0                        277.2688256359133
59199.99999999959         50                       277.65624708565036
0                         49731.59999999997        1200
799.9999999999999         49731.6                  827.9344662264223
59999.99999999961         0                        271.08337883104076
59999.99999999961         50                       271.48599836701925
0                         49817.99999999998        1200
799.9999999999999         49818                    840.5908161055545
60799.99999999963         0                        264.9098140947836
60799.99999999963         50                       265.32972181786005
0                         49889.999999999985       1200
799.9999999999999         49890                    852.0881636677699
61599.99999999964         0                        258.753011063727
61599.99999999964         50                       259.19216204011434
0                         49949.99999999999        1200
799.9999999999999         49950                    856.7706783443732
62399.999999999665        0                        252.61734810234594
62399.999999999665        50                       253.07785083761806
0                         50000                    1200
799.9999999999999         50000                    847.8410164189132
63199.99999999967         0                        246.50662017363396
63199.99999999967         50                       246.99126940777666
1599.9999999999998        49950                    794.5879044929939
1599.9999999999998        50000                    791.1392970299981
63999.999999999694        0                        240.427356951645
63999.999999999694        50                       240.93903214107016
2399.9999999999995        49950                    773.696859812732
2399.9999999999995        50000                    773.1082359519397
64799.99999999971         0                        234.38428076096446
64799.99999999971         50                       234.9271647541018
3199.9999999999995        49950                    761.1762018441302
3199.9999999999995        50000                    761.2713902965482
65599.99999999972         0                        228.38923313387704
65599.99999999972         50                       228.96705766014006
3999.999999999999         49950                    750.5248987202388
3999.999999999999         50000                    750.7156147795321
66399.99999999974         0                        222.44856908669325
66399.99999999974         50                       223.0670471859548
4799.999999999999         49950                    740.5075980263966
4799.999999999999         50000                    740.673270550503
67199.99999999975         0                        216.57781957523355
67199.99999999975         50                       217.24247627336192
5599.999999999998         49950                    730.879283892419
5599.999999999998         50000                    731.0030890975917
67999.99999999978         0                        210.79043395366895
67999.99999999978         50                       211.50849349166367
6399.999999999998         49950                    721.5730671787074
6399.999999999998         50000                    721.6578708437039
68799.9999999998          0                        205.1054851263445
68799.9999999998          50                       205.8853278085401
7199.999999999997         49950                    712.5531286768218
7199.999999999997         50000                    712.6045262152369
69599.99999999981         0                        199.54658216902234
69599.99999999981         50                       200.39819977567632
7999.999999999997         49950                    703.7896466838147
7999.999999999997         50000                    703.8128209377861
70399.99999999983         0                        194.14435526155893
70399.99999999983         50                       195.0796259643184
8799.999999999996         49950                    695.2554329847411
8799.999999999996         50000                    695.2547188284799
71199.99999999983         0                        188.93897068259108
71199.99999999983         50                       189.97207033418928
9599.999999999996         49950                    686.9258156608433
9599.999999999996         50000                    686.9047606879103
71999.99999999985         0                        183.98493474167722
71999.99999999985         50                       185.13274034833617
10399.999999999996        49950.00000000001        678.7787404573163
10399.999999999996        50000.00000000001        678.7402384785477
72799.99999999987         0                        179.3592774815019
72799.99999999987         50                       180.64156204151465
11199.999999999996        49950.00000000001        670.794717502585
11199.999999999996        50000.00000000001        670.7411320532036
73599.99999999988         0                        175.17685039567402
73599.99999999988         50                       176.61541008109023
11999.999999999998        49950.00000000001        662.9566907660181
11999.999999999998        50000.00000000001        662.8899817739024
74399.9999999999          0                        171.62161677830716
74399.9999999999          50                       173.23521496185407
12799.999999999998        49950.00000000001        655.2495989705099
12799.999999999998        50000.00000000001        655.1713374786342
75199.99999999991         0                        169.0178881713134
75199.99999999991         50                       170.80164667877503
13599.999999999998        49950                    647.6607471317026
13599.999999999998        50000                    647.5722781310741
75999.99999999993         0                        168.0140520344918
75999.99999999993         50                       169.86045715947873
14400                     49950                    640.1787992065869
14400                     50000                    640.0812856964254
76799.99999999994         0                        170.11864044697697
76799.99999999994         50                       171.51424307841353
15200                     49950                    632.7932222882874
15200                     50000                    632.68752828381
77599.99999999996         0                        179.4747674533658
77599.99999999996         50                       178.30778983771728
16000                     49950                    625.4962985467231
16000                     50000                    625.383290631738
78399.99999999997         0                        209.3648379303293
78399.99999999997         50                       197.19166529190986
16800                     49950                    618.2796234075655
16800                     50000                    618.1599171532109
79199.99999999999         0                        309.9290769067965
79199.99999999999         50                       252.2579023264213
17600.000000000004        49950                    611.1372496056866
17600.000000000004        50000                    611.0114914474084
80000                     0                        732.2545483021819
80000                     50.000000000000036       466.81124306189315
18400.000000000004        49950                    604.0627979362349
18400.000000000004        50000                    603.9314479856839
79199.99999999999         110                      224.72879704150165
80000                     109.99999999999898       338.4297086284447
19200.000000000004        49950                    597.0512906253389
19200.000000000004        50000                    596.9147881169919
79199.99999999999         182                      205.02704059093247
79999.99999999999         181.9999999999999        265.67820188266535
20000.000000000004        49950                    590.0979064521899
20000.000000000004        50000                    589.9566074257959
79199.99999999999         268.4                    189.12850049573413
80000                     268.40000000000083       220.55491971028724
20800.000000000004        49950                    583.198131796677
20800.000000000004        50000                    583.0523404204777
79199.99999999999         372.08                   176.2827635796171
80000                     372.08000000000123       190.5951661717072
21600.000000000007        49950                    576.3487726857827
21600.000000000007        50000                    576.1988343252027
79199.99999999999         496.496                  166.1405328520615
80000                     496.4959999999984        170.00452133587905
22400.000000000007        49950                    569.5459670394996
22400.000000000007        50000                    569.3920513752862
79199.99999999999         645.7952                 158.1904388249926
80000                     645.7951999999922        155.86931169031007
23200.000000000007        49950.00000000001        562.7868722362742
23200.000000000007        50000.00000000001        562.6292134092193
79199.99999999999         824.95424                152.10406169307163
80000                     824.9542399999984        146.64427661605038
24000.000000000007        49950.00000000001        556.0683731248256
24000.000000000007        50000.00000000001        555.9071537671086
79200                     1114.1220450616956       147.05520987434156
80000                     1118.5991439737309       140.50139610305706
24800.000000000007        49950.00000000001        549.3878489513701
24800.000000000007        50000.00000000001        549.2231875298008
79218.237230653           1531.9515216068849       145.50998964240662
80000                     1584.0840731503547       140.91879446438472
25600.00000000001         49950.00000000001        542.7430077386623
25600.00000000001         50000.00000000001        542.5750709876884
79232.9290332641          2100.0523398237474       149.00136019442212
80000                     2190.79777336359         145.98112223592375
26400.00000000001         49950.00000000001        536.1313605426305
26400.00000000001         50000.00000000001        535.9602207166896
80000                     2953.8717977788565       154.66069705417368