% Model:              ice_shelf_fwd5_5.mph
% Version:            COMSOL 5.5.0.359
% Date:               May 28 2021, 09:37
% Dimension:          2
% Nodes:              8080
% Expressions:        1
% Description:        Dependent variable H
% Length unit:        m
% x                       y                        H (1)
0                         0                        1200
799.9999999982422         0                        1018.727994067708
0                         50.000000000000064       1200
799.9999999982422         50                       1021.0890145878401
0                         110.00000000000014       1200
799.9999999982422         110                      1018.8650313217619
1599.9999999982606        0                        973.5245812938189
1599.9999999982606        50                       975.1304030285041
0                         182.00000000000026       1200
799.9999999982422         182                      1012.573054363793
2399.9999999982792        0                        956.957930291464
2399.9999999982792        50                       957.6075314223693
0                         268.4000000000004        1200
799.9999999982422         268.4                    1003.7106017831119
3199.9999999982974        0                        948.3079942419484
3199.9999999982974        50                       948.5315585728694
0                         372.0800000000006        1200
799.9999999982422         372.08                   994.7495834486441
3999.999999998316         0                        942.017029435532
3999.999999998316         50                       942.0812014399055
0                         496.4960000000009        1200
799.9999999982422         496.496                  988.6084277422932
4799.999999998335         0                        936.4597675455382
4799.999999998335         50                       936.4646099484552
0                         645.7952000000012        1200
799.9999999982422         645.7952                 987.6418090710513
5599.999999998353         0                        931.1081991600414
5599.999999998353         50                       931.0900033458485
0                         824.9542400000008        1200
799.9999999982422         824.95424                992.6483122521249
6399.999999998371         0                        925.7702341779292
6399.999999998371         50                       925.7433965770664
799.9999999987915         1114.1220450622031       1006.8949329621561
0                         1118.5991439753502       1200
7199.99999999839          0                        920.3682682972599
7199.99999999839          50                       920.3395175243805
781.7627693459491         1531.9515216083526       1030.2291446112838
0                         1584.0840731537774       1200
7999.999999998408         0                        914.8691700707193
7999.999999998408         50                       914.8421942042859
767.0709667351003         2100.052339826701        1056.0038129996426
0                         2190.7977733684256       1200
8799.999999998427         0                        909.259432206979
8799.999999998427         50                       909.2364627574984
0                         2953.871797784037        1200
816.3495062675902         2826.2761928641717       1074.5364613279103
9599.999999998445         0                        903.5351366199945
9599.999999998445         50                       903.5175704119247
832.0094048632673         3707.4344916005803       1094.7647596277013
0                         3927.715947133922        1200
10399.999999998463        0                        897.6973270539027
10399.999999998463        50                       897.6860242304216
0                         4746.946970992898        1200
799.9639322235964         4711.656197659465        1116.6771061589343
11199.999999998483        0                        891.749638810861
11199.999999998483        50                       891.745094738005
0                         5563.204709031168        1200
799.9999999995179         5563.069385372282        1130.1572259583486
11999.999999998501        0                        885.6969872100251
11999.999999998501        50                       885.6994434993347
0                         6353.466774504104        1200
799.9999999995346         6353.368072169113        1140.9511683089513
12799.99999999852         0                        879.5448149258686
12799.99999999852         50                       879.554345643497
0                         7145.257338404617        1200
799.9999999995512         7145.187333422622        1150.3508000893419
13599.999999998538        0                        873.2989311871563
13599.999999998538        50                       873.3154601190114
0                         7937.867294904695        1200
799.9999999995623         7937.818885089188        1158.4824400587602
14399.999999998556        0                        866.9643593448878
14399.999999998556        50                       866.9877919675704
0                         8730.929363666048        1200
799.9999999995679         8730.896662711353        1165.4483761319427
15199.999999998574        0                        860.5467411606763
15199.999999998574        50                       860.5768377504169
0                         9524.245521643654        1200
799.9999999995734         9524.223911838211        1171.3491360917003
15999.999999998594        0                        854.0504472784801
15999.999999998594        50                       854.0870523493256
0                         10317.705979092167       1200
799.9999999995734         10317.691991196083       1176.2892466052506
16799.99999999861         0                        847.4804564272572
16799.99999999861         50                       847.5232972792924
0                         11111.24876356568        1200
799.9999999995789         11111.239884404944       1180.3757838353588
17599.99999999863         0                        840.8407147299447
17599.99999999863         50                       840.8895779558658
0                         11904.838535779005       1200
799.99999999959           11904.833002160854       1183.714668438123
18399.99999999865         0                        834.1353205576589
18399.99999999865         50                       834.1899637536242
0                         12698.455055631186       1200
799.9999999995956         12698.451665799243       1186.4071264542913
19199.99999999867         0                        827.3678177388391
19199.99999999867         50                       827.4280177841114
0                         13492.086729577095       1200
799.9999999996122         13492.084685868238       1188.5472067801782
19999.999999998687        0                        820.5416948853396
19999.999999998687        50                       820.6072311207105
0                         14285.726936277473       1200
799.9999999996122         14285.725722042333       1190.2204513679671
20799.999999998705        0                        813.6600700407714
20799.999999998705        50                       813.7307118635749
0                         15079.371913260751       1200
799.9999999996234         15079.371201342976       1191.5034938234073
21599.999999998723        0                        806.7251928282279
21599.999999998723        50                       806.8008092862613
0                         15873.019536486989       1200
799.9999999996345         15873.019123987873       1192.4642993433397
22399.99999999874         0                        799.7407082251134
22399.99999999874         50                       799.821032635368
0                         16666.66861582688        1200
799.9999999996455         16666.668379280578       1193.162807050192
23199.99999999876         0                        792.7082789692206
23199.99999999876         50                       792.7932076750512
0                         17460.318489815734       1200
799.9999999996567         17460.31835537309        1193.6517985767246
23999.999999998778        0                        785.6307158534595
23999.999999998778        50                       785.7200585107624
0                         18253.96879390483        1200
799.9999999996622         18253.968718065393       1193.9778264567371
24799.999999998796        0                        778.5100259709932
24799.999999998796        50                       778.6036452828479
0                         19047.6193288926         1200
799.9999999996733         19047.61928637951        1194.1819756863028
25599.999999998814        0                        771.3480628680421
25599.999999998814        50                       771.4458392307359
0                         19841.26998686148        1200
799.9999999996844         19841.269963145605       1194.3001760821069
26399.999999998832        0                        764.1468551548827
26399.999999998832        50                       764.248657499739
0                         20634.920709813185       1200
799.9999999996844         20634.92069665555        1194.3627511672626
27199.99999999885         0                        756.9081009623123
27199.99999999885         50                       757.0137983409165
0                         21428.571466882328       1200
799.9999999996955         21428.571459571725       1194.3919990982538
27999.99999999887         0                        749.6329111643705
27999.99999999887         50                       749.7424816738909
0                         22222.222241630665       1200
799.9999999997011         22222.22223768271        1194.3836785656533
28799.99999999889         0                        742.3237080543826
28799.99999999889         50                       742.4369594066188
0                         23015.873025643235       1200
799.9999999997011         23015.87302334309        1194.309566012065
29599.99999999891         0                        734.9810022425132
29599.99999999891         50                       735.0979256008167
0                         23809.5238139669         1200
799.9999999997177         23809.523813091753       1194.2171586937166
30399.999999998927        0                        727.6066011810307
30399.999999998927        50                       727.7271007407368
0                         24603.17460485927        1200
799.9999999997289         24603.174603964315       1194.162852213028
31199.999999998945        0                        720.2015385200187
31199.999999998945        50                       720.3255572449666
0                         25396.825395139687       1200
799.9999999997399         25396.825396035074       1194.1628522310334
31999.999999998963        0                        712.7669673446576
31999.999999998963        50                       712.8944573396236
0                         26190.47618603211        1200
799.9999999997455         26190.476186907643       1194.2171587595392
32799.99999999898         0                        705.30396321415
32799.99999999898         50                       705.4348625430138
0                         26984.126974355764       1200
799.999999999751          26984.126976656327       1194.3095661582693
33599.999999998996        0                        697.813264038059
33599.999999998996        50                       697.9475667232293
0                         27777.777758368346       1200
799.9999999997622         27777.777762316713       1194.383678672496
34399.99999999902         0                        690.2961540053896
34399.99999999902         50                       690.4337872887351
0                         28571.428533116734       1200
799.9999999997788         28571.428540427692       1194.3919991963571
35199.99999999904         0                        682.752861754794
35199.99999999904         50                       682.8938781614446
0                         29365.07929018588        1200
799.9999999997788         29365.079303343882       1194.36275129528
35999.999999999054        0                        675.185026445823
35999.999999999054        50                       675.3293239045454
0                         30158.7300131376         1200
799.9999999997899         30158.730036853838       1194.3001762522774
36799.999999999076        0                        667.5927577963615
36799.999999999076        50                       667.740372151011
0                         30952.380671106486       1200
799.9999999997955         30952.380713619947       1194.1819758988477
37599.99999999909         0                        659.9769857771234
37599.99999999909         50                       660.1279338453786
0                         31746.031206094216       1200
799.9999999997955         31746.03128193407        1193.97782670658
38399.99999999911         0                        652.338589673087
38399.99999999911         50                       652.4928152947364
0                         32539.68151018333        1200
799.9999999998176         32539.681644626362       1193.6517988555918
39199.99999999913         0                        644.6776618244044
39199.99999999913         50                       644.8352397020302
0                         33333.33138417217        1200
799.9999999998288         33333.33162071887        1193.1628073475001
39999.99999999915         0                        636.9954199773706
39999.99999999915         50                       637.1563092558765
0                         34126.98046351209        1200
799.9999999998288         34126.98087601156        1192.464299645157
40799.99999999916         0                        629.2917000011532
40799.99999999916         50                       629.4559973624667
799.9999999998398         34920.62879865647        1191.5034941096426
0                         34920.62808673832        1200
41599.999999999185        0                        621.5677731464882
41599.999999999185        50                       621.7354381581105
799.999999999851          35714.274277957134       1190.2204516081458
0                         35714.27306372156        1200
42399.9999999992          0                        613.8236418407108
42399.9999999992          50                       613.9947566433267
0                         36507.91327042197        1200
799.9999999998621         36507.9153141312         1188.547206928006
43199.99999999922         0                        606.0602165108453
43199.99999999922         50                       606.2348001370548
0                         37301.54494436784        1200
799.9999999998676         37301.54833420018        1186.407126441149
43999.99999999924         0                        598.277839526709
43999.99999999924         50                       598.4559524644627
0                         38095.16146422003        1200
799.9999999998676         38095.16699783856        1183.7146681658055
44799.99999999926         0                        590.4770026753207
44799.99999999926         50                       590.6586912668502
0                         38888.751236433294       1200
799.9999999998787         38888.76011559445        1180.375783168141
45599.99999999928         0                        582.6581027904648
45599.99999999928         50                       582.843440981006
0                         39682.294020906775       1200
799.9999999998843         39682.30800880332        1176.2892453581278
46399.999999999294        0                        574.8217413316822
46399.999999999294        50                       575.0107949141365
0                         40475.75447835525        1200
799.9999999998843         40475.776088161154       1171.349134003005
47199.999999999316        0                        566.9683398698013
47199.999999999316        50                       567.1611936327836
0                         41269.07063633281        1200
799.9999999998954         41269.103337288          1165.4483728076966
47999.99999999933         0                        559.0985419592578
47999.99999999933         50                       559.2952723303314
0                         42062.13270509416        1200
799.9999999999176         42062.18111491014        1158.4824349293474
48799.99999999935         0                        551.2127501460421
48799.99999999935         50                       551.4134496855613
0                         42854.7426615942         1200
799.9999999999231         42854.8126665767         1150.3507926050177
49599.99999999937         0                        543.3113689459827
49599.99999999937         50                       543.5161630388776
0                         43646.53322549466        1200
799.9999999999287         43646.63192783015        1140.9511593330708
50399.99999999939         0                        535.3951809377235
50399.99999999939         50                       535.6041657073041
0                         44436.79529096755        1200
799.9999999999397         44436.93061462694        1130.15722320865
51199.9999999994          0                        527.4647442760443
51199.9999999994          50                       527.6780395157161
0                         45253.05302900575        1200
799.9639322240367         45288.34380233968        1116.6771425283323
51999.999999999425        0                        519.5205866065277
51999.999999999425        50                       519.7383336394608
0                         46072.28405286463        1200
832.009404863693          46292.565508398264       1094.764447300423
52799.99999999944         0                        511.5632391388341
52799.99999999944         50                       511.78559756253054
816.3495062681039         47173.723807134804       1074.5375873704236
0                         47046.1282022146         1200
53599.99999999946         0                        503.59353673115953
53599.99999999946         50                       503.8206617519044
0                         47809.20222663029        1200
767.0709667357058         47899.947660172635       1056.0046794723087
54399.99999999948         0                        495.6122361955091
54399.99999999948         50                       495.84430481850063
781.7627693467396         48468.04847839133        1030.2297890499276
0                         48415.915926845235       1200
55199.9999999995          0                        487.61997078547955
55199.9999999995          50                       487.8571906949149
799.9999999999866         48885.87795493768        1006.8953227098657
0                         48881.4008560241         1200
55999.99999999952         0                        479.61762242712547
55999.99999999952         50                       479.86021577798465
799.9999999999999         49175.04576              992.6486450245653
0                         49175.04575999986        1200
56799.999999999534        0                        471.60608941641163
56799.999999999534        50                       471.8543112223519
0                         49354.204799999934       1200
799.9999999999999         49354.2048               987.6421336268995
57599.999999999556        0                        463.5863545967938
57599.999999999556        50                       463.8404807728996
0                         49503.50399999995        1200
799.9999999999999         49503.504                988.6087460689771
58399.99999999957         0                        455.55944714976886
58399.99999999957         50                       455.81980795509173
0                         49627.91999999996        1200
799.9999999999999         49627.92                 994.7498940114983
59199.99999999959         0                        447.5265764382138
59199.99999999959         50                       447.79357038445136
0                         49731.59999999997        1200
799.9999999999999         49731.6                  1003.710903094213
59999.99999999961         0                        439.489673051049
59999.99999999961         50                       439.76365097776545
0                         49817.99999999998        1200
799.9999999999999         49818                    1012.5733473028895
60799.99999999963         0                        431.4497190111219
60799.99999999963         50                       431.7312285906523
0                         49889.999999999985       1200
799.9999999999999         49890                    1018.865319342638
61599.99999999964         0                        423.4087830418598
61599.99999999964         50                       423.6983927071991
0                         49949.99999999999        1200
799.9999999999999         49950                    1021.0893028520035
62399.999999999665        0                        415.3692196709741
62399.999999999665        50                       415.6675834950995
0                         50000                    1200
799.9999999999999         50000                    1018.7282890194006
63199.99999999967         0                        407.3334098457743
63199.99999999967         50                       407.64135653223565
1599.9999999999998        49950                    975.1307543823997
1599.9999999999998        50000                    973.52493567673
63999.999999999694        0                        399.3045809337211
63999.999999999694        50                       399.6230531668851
2399.9999999999995        49950                    957.6079163238782
2399.9999999999995        50000                    956.9583172503542
64799.99999999971         0                        391.28597299676954
64799.99999999971         50                       391.6162590936508
3199.9999999999995        49950                    948.5319714580644
3199.9999999999995        50000                    948.3084097308043
65599.99999999972         0                        383.28337201913047
65599.99999999972         50                       383.6268258647205
3999.999999999999         49950                    942.081635767212
3999.999999999999         50000                    942.0174665656369
66399.99999999974         0                        375.301840217813
66399.99999999974         50                       375.66041410495
4799.999999999999         49950                    936.4650620103115
4799.999999999999         50000                    936.4602224753039
67199.99999999975         0                        367.34999335157363
67199.99999999975         50                       367.7259321655212
5599.999999999998         49950                    931.0904713210015
5599.999999999998         50000                    931.108670042913
67999.99999999978         0                        359.43786093438547
67999.99999999978         50                       359.83415283617865
6399.999999999998         49950                    925.7438792442933
6399.999999999998         50000                    925.770719733403
68799.9999999998          0                        351.5790720385573
68799.9999999998          50                       351.9995899212509
7199.999999999997         49950                    920.340013773037
7199.999999999997         50000                    920.3687673559799
69599.99999999981         0                        343.7924084425108
69599.99999999981         50                       344.242269303549
7999.999999999997         49950                    914.8427031324642
7999.999999999997         50000                    914.8696816891172
70399.99999999983         0                        336.10399015056475
70399.99999999983         50                       336.5900799801991
8799.999999999996         49950                    909.2369836895656
8799.999999999996         50000                    909.2599556830902
71199.99999999983         0                        328.5509379006795
71199.99999999983         50                       329.08272749038673
9599.999999999996         49950                    903.5181028312014
9599.999999999996         50000                    903.5356714196944
71999.99999999985         0                        321.1873002637755
71999.99999999985         50                       321.77813044916593
10399.999999999996        49950.00000000001        897.6865676174251
10399.999999999996        50000.00000000001        897.6978726347079
72799.99999999987         0                        314.0940976829968
72799.99999999987         50                       314.76325028937805
11199.999999999996        49950.00000000001        891.7456483693634
11199.999999999996        50000.00000000001        891.7501943847657
73599.99999999988         0                        307.39714059881754
73599.99999999988         50                       308.1731802172651
11999.999999999998        49950.00000000001        885.7000065874743
11999.999999999998        50000.00000000001        885.6975518181139
74399.9999999999          0                        301.3008612781759
74399.9999999999          50                       302.22669819844936
12799.999999999998        49950.00000000001        879.5549206884496
12799.999999999998        50000.00000000001        879.5453907549958
75199.99999999991         0                        296.1587589566391
75199.99999999991         50                       297.2970665182326
13599.999999999998        49950                    873.3160663990769
13599.999999999998        50000                    873.2995390579647
75999.99999999993         0                        292.63888596079295
75999.99999999993         50                       294.0643774690626
14400                     49950                    866.9884469646375
14400                     50000                    866.9650184624874
76799.99999999994         0                        292.1760333558533
76799.99999999994         50                       293.87443035199203
15200                     49950                    860.5775120862025
15200                     50000                    860.5474214012204
77599.99999999996         0                        298.4357389383487
77599.99999999996         50                       299.68173267368655
16000                     49950                    854.0876539487523
16000                     50000                    854.0510482957335
78399.99999999997         0                        322.8824097520245
78399.99999999997         50                       318.8928732493961
16800                     49950                    847.5238581760365
16800                     50000                    847.4810129695505
79199.99999999999         0                        407.7034417880485
79199.99999999999         50                       372.34885460275234
17600.000000000004        49950                    840.890210757936
17600.000000000004        50000                    840.8413503629595
80000                     0                        736.1144173070675
80000                     50.000000000000036       529.790440078393
18400.000000000004        49950                    834.1906155366411
18400.000000000004        50000                    834.1359690402522
79199.99999999999         110                      339.72403688690684
80000                     109.99999999999898       401.47771774393556
19200.000000000004        49950                    827.4288956436748
19200.000000000004        50000                    827.3687221408647
79199.99999999999         182                      313.35877394427115
79999.99999999999         181.9999999999999        327.52354947977017
20000.000000000004        49950                    820.6078546524003
20000.000000000004        50000                    820.5422981365224
79199.99999999999         268.4                    293.5708286314096
80000                     268.40000000000083       286.54506851053947
20800.000000000004        49950                    813.7313308408936
20800.000000000004        50000                    813.6606977539778
79199.99999999999         372.08                   278.7749283372365
80000                     372.08000000000123       262.27706315746394
21600.000000000007        49950                    806.8015097461322
21600.000000000007        50000                    806.7259214563286
79199.99999999999         496.496                  267.11635452457284
80000                     496.4959999999984        246.54375862240894
22400.000000000007        49950                    799.8215550844008
22400.000000000007        50000                    799.7412195708358
79199.99999999999         645.7952                 257.31936116567374
80000                     645.7951999999922        235.8393333237056
23200.000000000007        49950.00000000001        792.7938915952892
23200.000000000007        50000.00000000001        792.7089755970226
79199.99999999999         824.95424                249.09666767612723
80000                     824.9542399999984        228.69625795955452
24000.000000000007        49950.00000000001        785.720741626843
24000.000000000007        50000.00000000001        785.6314128272757
79200                     1114.1220450616956       241.34635393921582
80000                     1118.5991439737309       223.56094739602835
24800.000000000007        49950.00000000001        778.6041849519272
24800.000000000007        50000.00000000001        778.510559876956
79218.237230653           1531.9515216068849       237.18677879196784
80000                     1584.0840731503547       223.32694352660104
25600.00000000001         49950.00000000001        771.446445443162
25600.00000000001         50000.00000000001        771.3486901927505
79232.9290332641          2100.0523398237474       238.8251031709677
80000                     2190.79777336359         228.83520895947495
26400.00000000001         49950.00000000001        764.249068912831
26400.00000000001         50000.00000000001        764.1472685253835
80000                     2953.8717977788565       238.86069556633578
79183.6504937318          2826.276192859754        247.11229586974534