% Model:              ice_shelf_fwd5_5.mph
% Version:            COMSOL 5.5.0.359
% Date:               May 27 2021, 22:10
% Dimension:          2
% Nodes:              8080
% Expressions:        1
% Description:        Dependent variable u
% Length unit:        m
% x                       y                        u (1)
0                         0                        0
799.9999999982422         0                        0
0                         50.000000000000064       2.5274520191649515E-7
799.9999999982422         50                       2.8092229003323625E-7
0                         110.00000000000014       5.540402426417138E-7
799.9999999982422         110                      6.434778009285774E-7
1599.9999999982606        0                        0
1599.9999999982606        50                       3.0116003097784404E-7
0                         182.00000000000026       9.127294250696476E-7
799.9999999982422         182                      1.0832976439237687E-6
2399.9999999982792        0                        0
2399.9999999982792        50                       3.07420813019402E-7
0                         268.4000000000004        1.3390551352769025E-6
799.9999999982422         268.4                    1.6037306419335767E-6
3199.9999999982974        0                        0
3199.9999999982974        50                       3.099770642918804E-7
0                         372.0800000000006        1.8447816110625602E-6
799.9999999982422         372.08                   2.2142116329707253E-6
3999.999999998316         0                        0
3999.999999998316         50                       3.119590524923091E-7
0                         496.4960000000009        2.443280126023001E-6
799.9999999982422         496.496                  2.9266473226645143E-6
4799.999999998335         0                        0
4799.999999998335         50                       3.1413660373081965E-7
0                         645.7952000000012        3.149543734014146E-6
799.9999999982422         645.7952                 3.7528262941468977E-6
5599.999999998353         0                        0
5599.999999998353         50                       3.1660820913198625E-7
0                         824.9542400000008        3.9800853563658785E-6
799.9999999982422         824.95424                4.704299053343583E-6
6399.999999998371         0                        0
6399.999999998371         50                       3.19309744654464E-7
799.9999999987915         1114.1220450622031       6.157907575548741E-6
0                         1118.5991439753502       5.301988548265111E-6
7199.99999999839          0                        0
7199.99999999839          50                       3.221560222538918E-7
781.7627693459491         1531.9515216083526       8.099625177148053E-6
0                         1584.0840731537774       7.299840033658279E-6
7999.999999998408         0                        0
7999.999999998408         50                       3.250748931960565E-7
767.0709667351003         2100.052339826701        1.0512024153315897E-5
0                         2190.7977733684256       9.73091697426456E-6
8799.999999998427         0                        0
8799.999999998427         50                       3.280119458890776E-7
0                         2953.871797784037        1.2525007817561483E-5
816.3495062675902         2826.2761928641717       1.3340759071712675E-5
9599.999999998445         0                        0
9599.999999998445         50                       3.309281387523457E-7
832.0094048632673         3707.4344916005803       1.6312258860118036E-5
0                         3927.715947133922        1.569315405355022E-5
10399.999999998463        0                        0
10399.999999998463        50                       3.337964166447641E-7
0                         4746.946970992898        1.8039176950057625E-5
799.9639322235964         4711.656197659465        1.9143737051372808E-5
11199.999999998483        0                        0
11199.999999998483        50                       3.3659873890314646E-7
0                         5563.204709031168        2.011005860252793E-5
799.9999999995179         5563.069385372282        2.1210566145564537E-5
11999.999999998501        0                        0
11999.999999998501        50                       3.393238069922856E-7
0                         6353.466774504104        2.1881263487655088E-5
799.9999999995346         6353.368072169113        2.2867605519060846E-5
12799.99999999852         0                        0
12799.99999999852         50                       3.419649811495333E-7
0                         7145.257338404617        2.3443852509830096E-5
799.9999999995512         7145.187333422622        2.4305652281366377E-5
13599.999999998538        0                        0
13599.999999998538        50                       3.445196415423692E-7
0                         7937.867294904695        2.4813142307904143E-5
799.9999999995623         7937.818885089188        2.5548926661228813E-5
14399.999999998556        0                        0
14399.999999998556        50                       3.4698795296849127E-7
0                         8730.929363666048        2.6004965839029543E-5
799.9999999995679         8730.896662711353        2.661982665992438E-5
15199.999999998574        0                        0
15199.999999998574        50                       3.493704172775287E-7
0                         9524.245521643654        2.7034977781584912E-5
799.9999999995734         9524.223911838211        2.753836382513008E-5
15999.999999998594        0                        0
15999.999999998594        50                       3.516709861556183E-7
0                         10317.705979092167       2.791834549106182E-5
799.9999999995734         10317.691991196083       2.8322210321965462E-5
16799.99999999861         0                        0
16799.99999999861         50                       3.5389243572439046E-7
0                         11111.24876356568        2.8669604389903338E-5
799.9999999995789         11111.239884404944       2.8986982175838442E-5
17599.99999999863         0                        0
17599.99999999863         50                       3.560391215202259E-7
0                         11904.838535779005       2.930258776992526E-5
799.99999999959           11904.833002160854       2.9546577666489612E-5
18399.99999999865         0                        0
18399.99999999865         50                       3.581155485365308E-7
0                         12698.455055631186       2.983039188697385E-5
799.9999999995956         12698.451665799243       3.0013485369079495E-5
19199.99999999867         0                        0
19199.99999999867         50                       3.601260449852068E-7
0                         13492.086729577095       3.0265358372113187E-5
799.9999999996122         13492.084685868238       3.0399030677646328E-5
19999.999999998687        0                        0
19999.999999998687        50                       3.6207539947023247E-7
0                         14285.726936277473       3.061906532732183E-5
799.9999999996122         14285.725722042333       3.071355785539166E-5
20799.999999998705        0                        0
20799.999999998705        50                       3.6396865917622584E-7
0                         15079.371913260751       3.090232282703513E-5
799.9999999996234         15079.371201342976       3.0966556717060236E-5
21599.999999998723        0                        0
21599.999999998723        50                       3.6580963877576706E-7
0                         15873.019536486989       3.112517066185016E-5
799.9999999996345         15873.019123987873       3.116674613162966E-5
22399.99999999874         0                        0
22399.99999999874         50                       3.6760229371106996E-7
0                         16666.66861582688        3.129687721937756E-5
799.9999999996455         16666.668379280578       3.132212533290129E-5
23199.99999999876         0                        0
23199.99999999876         50                       3.6935166604772503E-7
0                         17460.318489815734       3.142593893696947E-5
799.9999999996567         17460.31835537309        3.144000149646385E-5
23999.999999998778        0                        0
23999.999999998778        50                       3.710609277370297E-7
0                         18253.96879390483        3.152008003853847E-5
799.9999999996622         18253.968718065393       3.152700040021573E-5
24799.999999998796        0                        0
24799.999999998796        50                       3.727347224284466E-7
0                         19047.6193288926         3.1586252410363294E-5
799.9999999996733         19047.61928637951        3.158906811764963E-5
25599.999999998814        0                        0
25599.999999998814        50                       3.7437629624635313E-7
0                         19841.26998686148        3.1630635543697897E-5
799.9999999996844         19841.269963145605       3.1631475930015805E-5
26399.999999998832        0                        0
26399.999999998832        50                       3.7598935094147235E-7
0                         20634.920709813185       3.165863650885241E-5
799.9999999996844         20634.92069665555        3.165884449094329E-5
27199.99999999885         0                        0
27199.99999999885         50                       3.77577003541435E-7
0                         21428.571466882328       3.167488994378557E-5
799.9999999996955         21428.571459571725       3.167522230951347E-5
27999.99999999887         0                        0
27999.99999999887         50                       3.791430843941824E-7
0                         22222.222241630665       3.1683258049217426E-5
799.9999999997011         22222.22223768271        3.1684580183827885E-5
28799.99999999889         0                        0
28799.99999999889         50                       3.8068966173456576E-7
0                         23015.873025643235       3.168683058661033E-5
799.9999999997011         23015.87302334309        3.1690627381431735E-5
29599.99999999891         0                        0
29599.99999999891         50                       3.8222051692884273E-7
0                         23809.5238139669         3.168792487735472E-5
799.9999999997177         23809.523813091753       3.169426643247279E-5
30399.999999998927        0                        0
30399.999999998927        50                       3.8373836301708096E-7
0                         24603.17460485927        3.1688085802465073E-5
799.9999999997289         24603.174603964315       3.169593053371382E-5
31199.999999998945        0                        0
31199.999999998945        50                       3.8524591904329E-7
0                         25396.825395139687       3.1688085802465073E-5
799.9999999997399         25396.825396035074       3.1695930533662386E-5
31999.999999998963        0                        0
31999.999999998963        50                       3.8674622067812975E-7
0                         26190.47618603211        3.168792487735472E-5
799.9999999997455         26190.476186907643       3.169426643211766E-5
32799.99999999898         0                        0
32799.99999999898         50                       3.882415807614756E-7
0                         26984.126974355764       3.168683058661033E-5
799.999999999751          26984.126976656327       3.16906273802001E-5
33599.999999998996        0                        0
33599.999999998996        50                       3.897347356167549E-7
0                         27777.777758368346       3.168325804921743E-5
799.9999999997622         27777.777762316713       3.1684580181013994E-5
34399.99999999902         0                        0
34399.99999999902         50                       3.9122792077840323E-7
0                         28571.428533116734       3.1674889943785584E-5
799.9999999997788         28571.428540427692       3.1675222305232014E-5
35199.99999999904         0                        0
35199.99999999904         50                       3.9272406981381303E-7
0                         29365.07929018588        3.165863650885243E-5
799.9999999997788         29365.079303343882       3.165884448523179E-5
35999.999999999054        0                        0
35999.999999999054        50                       3.942247512145647E-7
0                         30158.7300131376         3.163063554369793E-5
799.9999999997899         30158.730036853838       3.1631475922727906E-5
36799.999999999076        0                        0
36799.999999999076        50                       3.957326036980094E-7
0                         30952.380671106486       3.158625241036336E-5
799.9999999997955         30952.380713619947       3.158906810877813E-5
37599.99999999909         0                        0
37599.99999999909         50                       3.9725084783209413E-7
0                         31746.031206094216       3.1520080038538564E-5
799.9999999997955         31746.03128193407        3.152700038983448E-5
38399.99999999911         0                        0
38399.99999999911         50                       3.9878072766390545E-7
0                         32539.68151018333        3.142593893696961E-5
799.9999999998176         32539.681644626362       3.1440001484659615E-5
39199.99999999913         0                        0
39199.99999999913         50                       4.0032520799252797E-7
0                         33333.33138417217        3.129687721937774E-5
799.9999999998288         33333.33162071887        3.132212531974832E-5
39999.99999999915         0                        0
39999.99999999915         50                       4.0188633224137505E-7
0                         34126.98046351209        3.112517066185039E-5
799.9999999998288         34126.98087601156        3.11667461172144E-5
40799.99999999916         0                        0
40799.99999999916         50                       4.034671017381665E-7
799.9999999998398         34920.62879865647        3.096655670153978E-5
0                         34920.62808673832        3.090232282703542E-5
41599.999999999185        0                        0
41599.999999999185        50                       4.050688936989824E-7
799.999999999851          35714.274277957134       3.071355783906917E-5
0                         35714.27306372156        3.061906532732222E-5
42399.9999999992          0                        0
42399.9999999992          50                       4.066947103012359E-7
0                         36507.91327042197        3.026535837211365E-5
799.9999999998621         36507.9153141312         3.039903066105376E-5
43199.99999999922         0                        0
43199.99999999922         50                       4.083467697873774E-7
0                         37301.54494436784        2.983039188697444E-5
799.9999999998676         37301.54833420018        3.0013485353058862E-5
43999.99999999924         0                        0
43999.99999999924         50                       4.100282306237309E-7
0                         38095.16146422003        2.9302587769925963E-5
799.9999999998676         38095.16699783856        2.9546577652253946E-5
44799.99999999926         0                        0
44799.99999999926         50                       4.1174140354947833E-7
0                         38888.751236433294       2.8669604389904226E-5
799.9999999998787         38888.76011559445        2.898698216496582E-5
45599.99999999928         0                        0
45599.99999999928         50                       4.1348895872620276E-7
0                         39682.294020906775       2.7918345491062906E-5
799.9999999998843         39682.30800880332        2.8322210316220014E-5
46399.999999999294        0                        0
46399.999999999294        50                       4.1527389093395093E-7
0                         40475.75447835525        2.7034977781586233E-5
799.9999999998843         40475.776088161154       2.753836382587788E-5
47199.999999999316        0                        0
47199.999999999316        50                       4.1709900746269767E-7
0                         41269.07063633281        2.6004965839031132E-5
799.9999999998954         41269.103337288          2.6619826666632267E-5
47999.99999999933         0                        0
47999.99999999933         50                       4.189676584663968E-7
0                         42062.13270509416        2.4813142307905986E-5
799.9999999999176         42062.18111491014        2.5548926667859153E-5
48799.99999999935         0                        0
48799.99999999935         50                       4.2088312422541616E-7
0                         42854.7426615942         2.3443852509832275E-5
799.9999999999231         42854.8126665767         2.430565226759999E-5
49599.99999999937         0                        0
49599.99999999937         50                       4.228490227515088E-7
0                         43646.53322549466        2.1881263487657683E-5
799.9999999999287         43646.63192783015        2.2867605427166503E-5
50399.99999999939         0                        0
50399.99999999939         50                       4.248687758156361E-7
0                         44436.79529096755        2.0110058602530986E-5
799.9999999999397         44436.93061462694        2.1210565810771766E-5
51199.9999999994          0                        0
51199.9999999994          50                       4.2694643324776495E-7
0                         45253.05302900575        1.803917695006126E-5
799.9639322240367         45288.34380233968        1.9143735921045104E-5
51999.999999999425        0                        0
51999.999999999425        50                       4.290867700756025E-7
0                         46072.28405286463        1.5693154053554625E-5
832.009404863693          46292.565508398264       1.6312254725638615E-5
52799.99999999944         0                        0
52799.99999999944         50                       4.3129418353064494E-7
816.3495062681039         47173.723807134804       1.3340752507795901E-5
0                         47046.1282022146         1.2525007817566232E-5
53599.99999999946         0                        0
53599.99999999946         50                       4.3357325979799207E-7
0                         47809.20222663029        9.730916974269514E-6
767.0709667357058         47899.947660172635       1.0512018646388658E-5
54399.99999999948         0                        0
54399.99999999948         50                       4.359299141211493E-7
781.7627693467396         48468.04847839133        8.09962125189111E-6
0                         48415.915926845235       7.29984003366241E-6
55199.9999999995          0                        0
55199.9999999995          50                       4.3837005190279154E-7
799.9999999999866         48885.87795493768        6.157904898902563E-6
0                         48881.4008560241         5.301988548267552E-6
55999.99999999952         0                        0
55999.99999999952         50                       4.408999576273266E-7
799.9999999999999         49175.04576              4.704297120930457E-6
0                         49175.04575999986        3.980085356366498E-6
56799.999999999534        0                        0
56799.999999999534        50                       4.4352690578931967E-7
0                         49354.204799999934       3.149543734014438E-6
799.9999999999999         49354.2048               3.7528247857603005E-6
57599.999999999556        0                        0
57599.999999999556        50                       4.4625842739114376E-7
0                         49503.50399999995        2.4432801260232363E-6
799.9999999999999         49503.504                2.9266461576683663E-6
58399.99999999957         0                        0
58399.99999999957         50                       4.4910300241550084E-7
0                         49627.91999999996        1.8447816110627395E-6
799.9999999999999         49627.92                 2.2142107578565374E-6
59199.99999999959         0                        0
59199.99999999959         50                       4.520699739810297E-7
0                         49731.59999999997        1.3390551352770467E-6
799.9999999999999         49731.6                  1.603730016604667E-6
59999.99999999961         0                        0
59999.99999999961         50                       4.551689989545796E-7
0                         49817.99999999998        9.127294250697391E-7
799.9999999999999         49818                    1.0832972357834802E-6
60799.99999999963         0                        0
60799.99999999963         50                       4.584128098161148E-7
0                         49889.999999999985       5.540402426417982E-7
799.9999999999999         49890                    6.434775779203671E-7
61599.99999999964         0                        0
61599.99999999964         50                       4.618130151914934E-7
0                         49949.99999999999        2.527452019165514E-7
799.9999999999999         49950                    2.8092220990507304E-7
62399.999999999665        0                        0
62399.999999999665        50                       4.653835011746053E-7
0                         50000                    0
799.9999999999999         50000                    0
63199.99999999967         0                        0
63199.99999999967         50                       4.691404290096831E-7
1599.9999999999998        49950                    3.01159856409728E-7
1599.9999999999998        50000                    0
63999.999999999694        0                        0
63999.999999999694        50                       4.731003908147519E-7
2399.9999999999995        49950                    3.074205808232254E-7
2399.9999999999995        50000                    0
64799.99999999971         0                        0
64799.99999999971         50                       4.772828979936419E-7
3199.9999999999995        49950                    3.099768020377924E-7
3199.9999999999995        50000                    0
65599.99999999972         0                        0
65599.99999999972         50                       4.817067620246447E-7
3999.999999999999         49950                    3.119587816049221E-7
3999.999999999999         50000                    0
66399.99999999974         0                        0
66399.99999999974         50                       4.863967728743656E-7
4799.999999999999         49950                    3.141363354513624E-7
4799.999999999999         50000                    0
67199.99999999975         0                        0
67199.99999999975         50                       4.913749703243595E-7
5599.999999999998         49950                    3.166079490847512E-7
5599.999999999998         50000                    0
67999.99999999978         0                        0
67999.99999999978         50                       4.966687071087877E-7
6399.999999999998         49950                    3.193094970671484E-7
6399.999999999998         50000                    0
68799.9999999998          0                        0
68799.9999999998          50                       5.023043388436395E-7
7199.999999999997         49950                    3.2215578963887046E-7
7199.999999999997         50000                    0
69599.99999999981         0                        0
69599.99999999981         50                       5.083078622124754E-7
7999.999999999997         49950                    3.2507467667727633E-7
7999.999999999997         50000                    0
70399.99999999983         0                        0
70399.99999999983         50                       5.147022463994863E-7
8799.999999999996         49950                    3.2801174560374906E-7
8799.999999999996         50000                    0
71199.99999999983         0                        0
71199.99999999983         50                       5.215031674629572E-7
9599.999999999996         49950                    3.3092795414730046E-7
9599.999999999996         50000                    0
71999.99999999985         0                        0
71999.99999999985         50                       5.287109662955513E-7
10399.999999999996        49950.00000000001        3.3379624655727994E-7
10399.999999999996        50000.00000000001        0
72799.99999999987         0                        0
72799.99999999987         50                       5.362960884728181E-7
11199.999999999996        49950.00000000001        3.365985809734898E-7
11199.999999999996        50000.00000000001        0
73599.99999999988         0                        0
73599.99999999988         50                       5.441719594207556E-7
11999.999999999998        49950.00000000001        3.393236557767411E-7
11999.999999999998        50000.00000000001        0
74399.9999999999          0                        0
74399.9999999999          50                       5.521425662845102E-7
12799.999999999998        49950.00000000001        3.4196481932091986E-7
12799.999999999998        50000.00000000001        0
75199.99999999991         0                        0
75199.99999999991         50                       5.597968268398841E-7
13599.999999999998        49950                    3.445194541419085E-7
13599.999999999998        50000                    0
75999.99999999993         0                        0
75999.99999999993         50                       5.662894277433962E-7
14400                     49950                    3.469877843705926E-7
14400                     50000                    0
76799.99999999994         0                        0
76799.99999999994         50                       5.698823131042389E-7
15200                     49950                    3.49370372763129E-7
15200                     50000                    0
77599.99999999996         0                        0
77599.99999999996         50                       5.671002704823302E-7
16000                     49950                    3.5167101614051695E-7
16000                     50000                    0
78399.99999999997         0                        0
78399.99999999997         50                       5.522573423824491E-7
16800                     49950                    3.538922770372018E-7
16800                     50000                    0
79199.99999999999         0                        0
79199.99999999999         50                       5.34342789340352E-7
17600.000000000004        49950                    3.5603898889021255E-7
17600.000000000004        50000                    0
80000                     0                        0
80000                     50.000000000000036       9.250949881490877E-7
18400.000000000004        49950                    3.581152192123082E-7
18400.000000000004        50000                    0
79199.99999999999         110                      1.1664264374663554E-6
80000                     109.99999999999898       2.2607381604683357E-6
19200.000000000004        49950                    3.601258289571809E-7
19200.000000000004        50000                    0
79199.99999999999         182                      1.994446653238015E-6
79999.99999999999         181.9999999999999        3.906289401558973E-6
20000.000000000004        49950                    3.620757906776438E-7
20000.000000000004        50000                    0
79199.99999999999         268.4                    3.096022417069327E-6
80000                     268.40000000000083       5.690350144318154E-6
20800.000000000004        49950                    3.6396855877881795E-7
20800.000000000004        50000                    0
79199.99999999999         372.08                   4.5498909857519315E-6
80000                     372.08000000000123       7.5729048985527895E-6
21600.000000000007        49950                    3.658094049144052E-7
21600.000000000007        50000                    0
79199.99999999999         496.496                  6.410966260364494E-6
80000                     496.4959999999984        9.585822220348698E-6
22400.000000000007        49950                    3.676020488912513E-7
22400.000000000007        50000                    0
79199.99999999999         645.7952                 8.68297128175484E-6
80000                     645.7951999999922        1.175076134907318E-5
23200.000000000007        49950.00000000001        3.693514638537909E-7
23200.000000000007        50000.00000000001        0
79199.99999999999         824.95424                1.1304708785227734E-5
80000                     824.9542399999984        1.4055739202917385E-5
24000.000000000007        49950.00000000001        3.710609526158871E-7
24000.000000000007        50000.00000000001        0
79200                     1114.1220450616956       1.5063971335189073E-5
80000                     1118.5991439737309       1.7254496780920208E-5
24800.000000000007        49950.00000000001        3.7273476162050986E-7
24800.000000000007        50000.00000000001        0
79218.237230653           1531.9515216068849       1.9412402912279796E-5
80000                     1584.0840731503547       2.117205023528187E-5
25600.00000000001         49950.00000000001        3.743763716629025E-7
25600.00000000001         50000.00000000001        0
79232.9290332641          2100.0523398237474       2.3582315796529936E-5
80000                     2190.79777336359         2.4816883959750823E-5
26400.00000000001         49950.00000000001        3.759893067379524E-7
26400.00000000001         50000.00000000001        0
80000                     2953.8717977788565       2.794561747660633E-5
79183.6504937318          2826.276192859754        2.70441566767099E-5
27200.00000000001         49950                    3.7757697071698553E-7
27200.00000000001         50000                    0