% Model:              ice_shelf_fwd5_5.mph
% Version:            COMSOL 5.5.0.359
% Date:               Jun 8 2021, 17:27
% Dimension:          2
% Nodes:              8080
% Expressions:        1
% Description:        Dependent variable u
% Length unit:        m
% x                       y                        u (1)
0                         0                        0
799.9999999982422         0                        0
0                         50.000000000000064       2.5274520191649515E-7
799.9999999982422         50                       3.2856051074975695E-7
0                         110.00000000000014       5.540402426417138E-7
799.9999999982422         110                      8.045535092021357E-7
1599.9999999982606        0                        0
1599.9999999982606        50                       4.003668822150284E-7
0                         182.00000000000026       9.127294250696476E-7
799.9999999982422         182                      1.3701077265508368E-6
2399.9999999982792        0                        0
2399.9999999982792        50                       4.2615144785793526E-7
0                         268.4000000000004        1.3390551352769025E-6
799.9999999982422         268.4                    2.0159636596649575E-6
3199.9999999982974        0                        0
3199.9999999982974        50                       4.4304657394311893E-7
0                         372.0800000000006        1.8447816110625602E-6
799.9999999982422         372.08                   2.751646897072188E-6
3999.999999998316         0                        0
3999.999999998316         50                       4.572569468808999E-7
0                         496.4960000000009        2.443280126023001E-6
799.9999999982422         496.496                  3.5910625182415518E-6
4799.999999998335         0                        0
4799.999999998335         50                       4.6982039536864437E-7
0                         645.7952000000012        3.149543734014146E-6
799.9999999982422         645.7952                 4.548210438595611E-6
5599.999999998353         0                        0
5599.999999998353         50                       4.809950989249856E-7
0                         824.9542400000008        3.9800853563658785E-6
799.9999999982422         824.95424                5.636722826828107E-6
6399.999999998371         0                        0
6399.999999998371         50                       4.909504673961738E-7
799.9999999987915         1114.1220450622031       7.280050394527877E-6
0                         1118.5991439753502       5.301988548265111E-6
7199.99999999839          0                        0
7199.99999999839          50                       4.998447252599139E-7
781.7627693459491         1531.9515216083526       9.435700020667265E-6
0                         1584.0840731537774       7.299840033658279E-6
7999.999999998408         0                        0
7999.999999998408         50                       5.07823506851262E-7
767.0709667351003         2100.052339826701        1.207484321165417E-5
0                         2190.7977733684256       9.73091697426456E-6
8799.999999998427         0                        0
8799.999999998427         50                       5.150153375647277E-7
0                         2953.871797784037        1.2525007817561483E-5
816.3495062675902         2826.2761928641717       1.5159152113333165E-5
9599.999999998445         0                        0
9599.999999998445         50                       5.215309092499064E-7
832.0094048632673         3707.4344916005803       1.8282201419214392E-5
0                         3927.715947133922        1.569315405355022E-5
10399.999999998463        0                        0
10399.999999998463        50                       5.274644436999884E-7
0                         4746.946970992898        1.8039176950057625E-5
799.9639322235964         4711.656197659465        2.108483922022512E-5
11199.999999998483        0                        0
11199.999999998483        50                       5.328957664280816E-7
0                         5563.204709031168        2.011005860252793E-5
799.9999999995179         5563.069385372282        2.3075826125427353E-5
11999.999999998501        0                        0
11999.999999998501        50                       5.378925619626346E-7
0                         6353.466774504104        2.1881263487655088E-5
799.9999999995346         6353.368072169113        2.4624818207589785E-5
12799.99999999852         0                        0
12799.99999999852         50                       5.425118715238221E-7
0                         7145.257338404617        2.3443852509830096E-5
799.9999999995512         7145.187333422622        2.5938097972236248E-5
13599.999999998538        0                        0
13599.999999998538        50                       5.468026884186755E-7
0                         7937.867294904695        2.4813142307904143E-5
799.9999999995623         7937.818885089188        2.7054096415409296E-5
14399.999999998556        0                        0
14399.999999998556        50                       5.508089208668022E-7
0                         8730.929363666048        2.6004965839029543E-5
799.9999999995679         8730.896662711353        2.8004435713756773E-5
15199.999999998574        0                        0
15199.999999998574        50                       5.54561571557093E-7
0                         9524.245521643654        2.7034977781584912E-5
799.9999999995734         9524.223911838211        2.8814220878574568E-5
15999.999999998594        0                        0
15999.999999998594        50                       5.58097710737931E-7
0                         10317.705979092167       2.791834549106182E-5
799.9999999995734         10317.691991196083       2.9503225407911786E-5
16799.99999999861         0                        0
16799.99999999861         50                       5.614407309330008E-7
0                         11111.24876356568        2.8669604389903338E-5
799.9999999995789         11111.239884404944       3.0087234681146154E-5
17599.99999999863         0                        0
17599.99999999863         50                       5.646151173962335E-7
0                         11904.838535779005       2.930258776992526E-5
799.99999999959           11904.833002160854       3.057921679989617E-5
18399.99999999865         0                        0
18399.99999999865         50                       5.676429004134343E-7
0                         12698.455055631186       2.983039188697385E-5
799.9999999995956         12698.451665799243       3.09902080946894E-5
19199.99999999867         0                        0
19199.99999999867         50                       5.705413659635457E-7
0                         13492.086729577095       3.0265358372113187E-5
799.9999999996122         13492.084685868238       3.132991927532513E-5
19999.999999998687        0                        0
19999.999999998687        50                       5.733270846494048E-7
0                         14285.726936277473       3.061906532732183E-5
799.9999999996122         14285.725722042333       3.160711837440933E-5
20799.999999998705        0                        0
20799.999999998705        50                       5.760169375231489E-7
0                         15079.371913260751       3.090232282703513E-5
799.9999999996234         15079.371201342976       3.182985603243292E-5
21599.999999998723        0                        0
21599.999999998723        50                       5.786219812039208E-7
0                         15873.019536486989       3.112517066185016E-5
799.9999999996345         15873.019123987873       3.200558882185217E-5
22399.99999999874         0                        0
22399.99999999874         50                       5.81153567640552E-7
0                         16666.66861582688        3.129687721937756E-5
799.9999999996455         16666.668379280578       3.214124069400635E-5
23199.99999999876         0                        0
23199.99999999876         50                       5.836238474904481E-7
0                         17460.318489815734       3.142593893696947E-5
799.9999999996567         17460.31835537309        3.2243228205263364E-5
23999.999999998778        0                        0
23999.999999998778        50                       5.860424280241764E-7
0                         18253.96879390483        3.152008003853847E-5
799.9999999996622         18253.968718065393       3.23174646052496E-5
24799.999999998796        0                        0
24799.999999998796        50                       5.884191987810365E-7
0                         19047.6193288926         3.1586252410363294E-5
799.9999999996733         19047.61928637951        3.236935134665111E-5
25599.999999998814        0                        0
25599.999999998814        50                       5.907615724485233E-7
0                         19841.26998686148        3.1630635543697897E-5
799.9999999996844         19841.269963145605       3.240376211491214E-5
26399.999999998832        0                        0
26399.999999998832        50                       5.930776731258485E-7
0                         20634.920709813185       3.165863650885241E-5
799.9999999996844         20634.92069665555        3.242502281612E-5
27199.99999999885         0                        0
27199.99999999885         50                       5.953736564855965E-7
0                         21428.571466882328       3.167488994378557E-5
799.9999999996955         21428.571459571725       3.243689011125199E-5
27999.99999999887         0                        0
27999.99999999887         50                       5.976587023888593E-7
0                         22222.222241630665       3.1683258049217426E-5
799.9999999997011         22222.22223768271        3.244253049481147E-5
28799.99999999889         0                        0
28799.99999999889         50                       5.999359256305328E-7
0                         23015.873025643235       3.168683058661033E-5
799.9999999997011         23015.87302334309        3.2444501390016246E-5
29599.99999999891         0                        0
29599.99999999891         50                       6.022113681409995E-7
0                         23809.5238139669         3.168792487735472E-5
799.9999999997177         23809.523813091753       3.24447352586155E-5
30399.999999998927        0                        0
30399.999999998927        50                       6.044928798935986E-7
0                         24603.17460485927        3.1688085802465073E-5
799.9999999997289         24603.174603964315       3.2444527337190573E-5
31199.999999998945        0                        0
31199.999999998945        50                       6.067841494162901E-7
0                         25396.825395139687       3.1688085802465073E-5
799.9999999997399         25396.825396035074       3.244452733469916E-5
31999.999999998963        0                        0
31999.999999998963        50                       6.090911513778997E-7
0                         26190.47618603211        3.168792487735472E-5
799.9999999997455         26190.476186907643       3.2444735251089846E-5
32799.99999999898         0                        0
32799.99999999898         50                       6.114180221998375E-7
0                         26984.126974355764       3.168683058661033E-5
799.999999999751          26984.126976656327       3.244450137730105E-5
33599.999999998996        0                        0
33599.999999998996        50                       6.137701467467796E-7
0                         27777.777758368346       3.168325804921743E-5
799.9999999997622         27777.777762316713       3.24425304766446E-5
34399.99999999902         0                        0
34399.99999999902         50                       6.161510783568393E-7
0                         28571.428533116734       3.1674889943785584E-5
799.9999999997788         28571.428540427692       3.2436890087260074E-5
35199.99999999904         0                        0
35199.99999999904         50                       6.185670418270559E-7
0                         29365.07929018588        3.165863650885243E-5
799.9999999997788         29365.079303343882       3.2425022785813325E-5
35999.999999999054        0                        0
35999.999999999054        50                       6.210211417421043E-7
0                         30158.7300131376         3.163063554369793E-5
799.9999999997899         30158.730036853838       3.240376207768016E-5
36799.999999999076        0                        0
36799.999999999076        50                       6.235152737126152E-7
0                         30952.380671106486       3.158625241036336E-5
799.9999999997955         30952.380713619947       3.23693513017597E-5
37599.99999999909         0                        0
37599.99999999909         50                       6.260595224766874E-7
0                         31746.031206094216       3.1520080038538564E-5
799.9999999997955         31746.03128193407        3.231746455184131E-5
38399.99999999911         0                        0
38399.99999999911         50                       6.286547396367785E-7
0                         32539.68151018333        3.142593893696961E-5
799.9999999998176         32539.681644626362       3.224322814236127E-5
39199.99999999913         0                        0
39199.99999999913         50                       6.313047600157954E-7
0                         33333.33138417217        3.129687721937774E-5
799.9999999998288         33333.33162071887        3.214124062052006E-5
39999.99999999915         0                        0
39999.99999999915         50                       6.340158258801526E-7
0                         34126.98046351209        3.112517066185039E-5
799.9999999998288         34126.98087601156        3.200558873658238E-5
40799.99999999916         0                        0
40799.99999999916         50                       6.367931835729926E-7
799.9999999998398         34920.62879865647        3.1829855934067E-5
0                         34920.62808673832        3.090232282703542E-5
41599.999999999185        0                        0
41599.999999999185        50                       6.396396530217899E-7
799.999999999851          35714.274277957134       3.160711826149633E-5
0                         35714.27306372156        3.061906532732222E-5
42399.9999999992          0                        0
42399.9999999992          50                       6.425591547956031E-7
0                         36507.91327042197        3.026535837211365E-5
799.9999999998621         36507.9153141312         3.1329919146213694E-5
43199.99999999922         0                        0
43199.99999999922         50                       6.45558445168874E-7
0                         37301.54494436784        2.983039188697444E-5
799.9999999998676         37301.54833420018        3.099020794740508E-5
43999.99999999924         0                        0
43999.99999999924         50                       6.486432102018637E-7
0                         38095.16146422003        2.9302587769925963E-5
799.9999999998676         38095.16699783856        3.0579216631916276E-5
44799.99999999926         0                        0
44799.99999999926         50                       6.518174440694666E-7
0                         38888.751236433294       2.8669604389904226E-5
799.9999999998787         38888.76011559445        3.008723448898242E-5
45599.99999999928         0                        0
45599.99999999928         50                       6.550866050343551E-7
0                         39682.294020906775       2.7918345491062906E-5
799.9999999998843         39682.30800880332        2.9503225186278162E-5
46399.999999999294        0                        0
46399.999999999294        50                       6.584569263012441E-7
0                         40475.75447835525        2.7034977781586233E-5
799.9999999998843         40475.776088161154       2.8814220618565496E-5
47199.999999999316        0                        0
47199.999999999316        50                       6.619335672832172E-7
0                         41269.07063633281        2.6004965839031132E-5
799.9999999998954         41269.103337288          2.800443539851359E-5
47999.99999999933         0                        0
47999.99999999933         50                       6.655233050762544E-7
0                         42062.13270509416        2.4813142307905986E-5
799.9999999999176         42062.18111491014        2.7054096009168947E-5
48799.99999999935         0                        0
48799.99999999935         50                       6.692325681821438E-7
0                         42854.7426615942         2.3443852509832275E-5
799.9999999999231         42854.8126665767         2.5938097391746003E-5
49599.99999999937         0                        0
49599.99999999937         50                       6.730675589416866E-7
0                         43646.53322549466        2.1881263487657683E-5
799.9999999999287         43646.63192783015        2.4624817248266666E-5
50399.99999999939         0                        0
50399.99999999939         50                       6.770362760936588E-7
0                         44436.79529096755        2.0110058602530986E-5
799.9999999999397         44436.93061462694        2.3075824285115663E-5
51199.9999999994          0                        0
51199.9999999994          50                       6.811431253999657E-7
0                         45253.05302900575        1.803917695006126E-5
799.9639322240367         45288.34380233968        2.1084835224368143E-5
51999.999999999425        0                        0
51999.999999999425        50                       6.853995393473775E-7
0                         46072.28405286463        1.5693154053554625E-5
832.009404863693          46292.565508398264       1.828219220360796E-5
52799.99999999944         0                        0
52799.99999999944         50                       6.898131718392861E-7
816.3495062681039         47173.723807134804       1.5159138830025279E-5
0                         47046.1282022146         1.2525007817566232E-5
53599.99999999946         0                        0
53599.99999999946         50                       6.943887215467303E-7
0                         47809.20222663029        9.730916974269514E-6
767.0709667357058         47899.947660172635       1.207483161330384E-5
54399.99999999948         0                        0
54399.99999999948         50                       6.991387771607816E-7
781.7627693467396         48468.04847839133        9.435691674290736E-6
0                         48415.915926845235       7.29984003366241E-6
55199.9999999995          0                        0
55199.9999999995          50                       7.04071759923243E-7
799.9999999999866         48885.87795493768        7.280044571268302E-6
0                         48881.4008560241         5.301988548267552E-6
55999.99999999952         0                        0
55999.99999999952         50                       7.091964000884613E-7
799.9999999999999         49175.04576              5.636718534712144E-6
0                         49175.04575999986        3.980085356366498E-6
56799.999999999534        0                        0
56799.999999999534        50                       7.145238958801907E-7
0                         49354.204799999934       3.149543734014438E-6
799.9999999999999         49354.2048               4.548207051541838E-6
57599.999999999556        0                        0
57599.999999999556        50                       7.200635174788572E-7
0                         49503.50399999995        2.4432801260232363E-6
799.9999999999999         49503.504                3.591059885232143E-6
58399.99999999957         0                        0
58399.99999999957         50                       7.258257834130145E-7
0                         49627.91999999996        1.8447816110627395E-6
799.9999999999999         49627.92                 2.751644910393497E-6
59199.99999999959         0                        0
59199.99999999959         50                       7.318231307523152E-7
0                         49731.59999999997        1.3390551352770467E-6
799.9999999999999         49731.6                  2.0159622375546088E-6
59999.99999999961         0                        0
59999.99999999961         50                       7.380610630146303E-7
0                         49817.99999999998        9.127294250697391E-7
799.9999999999999         49818                    1.370106806569636E-6
60799.99999999963         0                        0
60799.99999999963         50                       7.445573872226977E-7
0                         49889.999999999985       5.540402426417982E-7
799.9999999999999         49890                    8.045530343543849E-7
61599.99999999964         0                        0
61599.99999999964         50                       7.513191633221656E-7
0                         49949.99999999999        2.527452019165514E-7
799.9999999999999         49950                    3.2856038721806096E-7
62399.999999999665        0                        0
62399.999999999665        50                       7.583540226504861E-7
0                         50000                    0
799.9999999999999         50000                    0
63199.99999999967         0                        0
63199.99999999967         50                       7.656753062086944E-7
1599.9999999999998        49950                    4.003665094436841E-7
1599.9999999999998        50000                    0
63999.999999999694        0                        0
63999.999999999694        50                       7.732852340168547E-7
2399.9999999999995        49950                    4.2615102432503793E-7
2399.9999999999995        50000                    0
64799.99999999971         0                        0
64799.99999999971         50                       7.8119407343493E-7
3199.9999999999995        49950                    4.4304613049113684E-7
3199.9999999999995        50000                    0
65599.99999999972         0                        0
65599.99999999972         50                       7.893907491764338E-7
3999.999999999999         49950                    4.57256488507254E-7
3999.999999999999         50000                    0
66399.99999999974         0                        0
66399.99999999974         50                       7.97882986726899E-7
4799.999999999999         49950                    4.6981993039620196E-7
4799.999999999999         50000                    0
67199.99999999975         0                        0
67199.99999999975         50                       8.066413806541264E-7
5599.999999999998         49950                    4.809946308756778E-7
5599.999999999998         50000                    0
67999.99999999978         0                        0
67999.99999999978         50                       8.156463715888883E-7
6399.999999999998         49950                    4.909500019410871E-7
6399.999999999998         50000                    0
68799.9999999998          0                        0
68799.9999999998          50                       8.248489745939771E-7
7199.999999999997         49950                    4.998442669208714E-7
7199.999999999997         50000                    0
69599.99999999981         0                        0
69599.99999999981         50                       8.341733724121797E-7
7999.999999999997         49950                    5.078230587115811E-7
7999.999999999997         50000                    0
70399.99999999983         0                        0
70399.99999999983         50                       8.435011236325634E-7
8799.999999999996         49950                    5.150149013973614E-7
8799.999999999996         50000                    0
71199.99999999983         0                        0
71199.99999999983         50                       8.526491365075194E-7
9599.999999999996         49950                    5.215304858410589E-7
9599.999999999996         50000                    0
71999.99999999985         0                        0
71999.99999999985         50                       8.613321949305646E-7
10399.999999999996        49950.00000000001        5.274640332429011E-7
10399.999999999996        50000.00000000001        0
72799.99999999987         0                        0
72799.99999999987         50                       8.690997370162956E-7
11199.999999999996        49950.00000000001        5.32895368378306E-7
11199.999999999996        50000.00000000001        0
73599.99999999988         0                        0
73599.99999999988         50                       8.752235127854709E-7
11999.999999999998        49950.00000000001        5.378921723984828E-7
11999.999999999998        50000.00000000001        0
74399.9999999999          0                        0
74399.9999999999          50                       8.784886095329424E-7
12799.999999999998        49950.00000000001        5.425114559402185E-7
12799.999999999998        50000.00000000001        0
75199.99999999991         0                        0
75199.99999999991         50                       8.767860393655908E-7
13599.999999999998        49950                    5.468021471827871E-7
13599.999999999998        50000                    0
75999.99999999993         0                        0
75999.99999999993         50                       8.662835635135738E-7
14400                     49950                    5.508084548553469E-7
14400                     50000                    0
76799.99999999994         0                        0
76799.99999999994         50                       8.39732747727743E-7
15200                     49950                    5.545615857872278E-7
15200                     50000                    0
77599.99999999996         0                        0
77599.99999999996         50                       7.832000201333344E-7
16000                     49950                    5.580977663479981E-7
16000                     50000                    0
78399.99999999997         0                        0
78399.99999999997         50                       6.724033945190726E-7
16800                     49950                    5.614402371924938E-7
16800                     50000                    0
79199.99999999999         0                        0
79199.99999999999         50                       5.049763232942828E-7
17600.000000000004        49950                    5.646149506495191E-7
17600.000000000004        50000                    0
80000                     0                        0
80000                     50.000000000000036       1.0088470185928865E-6
18400.000000000004        49950                    5.676421670354095E-7
18400.000000000004        50000                    0
79199.99999999999         110                      1.0853120796823667E-6
80000                     109.99999999999898       2.3888798451236958E-6
19200.000000000004        49950                    5.705405275853824E-7
19200.000000000004        50000                    0
79199.99999999999         182                      1.883332365659199E-6
79999.99999999999         181.9999999999999        4.081656723102964E-6
20000.000000000004        49950                    5.733286171711418E-7
20000.000000000004        50000                    0
79199.99999999999         268.4                    3.0489071914310276E-6
80000                     268.40000000000083       6.031181145055209E-6
20800.000000000004        49950                    5.760171050634741E-7
20800.000000000004        50000                    0
79199.99999999999         372.08                   4.732741890196063E-6
80000                     372.08000000000123       8.246888607456764E-6
21600.000000000007        49950                    5.786209244353033E-7
21600.000000000007        50000                    0
79199.99999999999         496.496                  7.047543756289723E-6
80000                     496.4959999999984        1.0761864790897867E-5
22400.000000000007        49950                    5.811526368439953E-7
22400.000000000007        50000                    0
79199.99999999999         645.7952                 1.0032988695178985E-5
80000                     645.7951999999922        1.3586231198456935E-5
23200.000000000007        49950.00000000001        5.836237315499083E-7
23200.000000000007        50000.00000000001        0
79199.99999999999         824.95424                1.3619735118730231E-5
80000                     824.9542399999984        1.6678414598441314E-5
24000.000000000007        49950.00000000001        5.860426772943865E-7
24000.000000000007        50000.00000000001        0
79200                     1114.1220450616956       1.8876559524974056E-5
80000                     1118.5991439737309       2.1024190898011056E-5
24800.000000000007        49950.00000000001        5.884193767085095E-7
24800.000000000007        50000.00000000001        0
79218.237230653           1531.9515216068849       2.4839565547360547E-5
80000                     1584.0840731503547       2.6336713679191214E-5
25600.00000000001         49950.00000000001        5.907617843396148E-7
25600.00000000001         50000.00000000001        0
79232.9290332641          2100.0523398237474       3.0362958111317194E-5
80000                     2190.79777336359         3.132653218391787E-5
26400.00000000001         49950.00000000001        5.930775574745627E-7
26400.00000000001         50000.00000000001        0
80000                     2953.8717977788565       3.57286136183294E-5
79183.6504937318          2826.276192859754        3.5044696607940546E-5
27200.00000000001         49950                    5.953740344686608E-7
27200.00000000001         50000                    0
79167.99059513603         3707.4344915955808       3.8761892913288146E-5