% Model:              ice_shelf_fwd5_5.mph
% Version:            COMSOL 5.5.0.359
% Date:               Jun 8 2021, 17:27
% Dimension:          2
% Nodes:              8080
% Expressions:        1
% Description:        Dependent variable v
% Length unit:        m
% x                       y                        v (1)
0                         0                        0
799.9999999982422         0                        0
0                         50.000000000000064       0
799.9999999982422         50                       1.8684990701287388E-9
0                         110.00000000000014       0
799.9999999982422         110                      1.485529706715599E-8
1599.9999999982606        0                        0
1599.9999999982606        50                       -8.022018895843992E-9
0                         182.00000000000026       0
799.9999999982422         182                      2.4241164698600715E-8
2399.9999999982792        0                        0
2399.9999999982792        50                       -1.2808220160940613E-8
0                         268.4000000000004        0
799.9999999982422         268.4                    1.902553106509398E-8
3199.9999999982974        0                        0
3199.9999999982974        50                       -1.425368578813165E-8
0                         372.0800000000006        0
799.9999999982422         372.08                   -6.352676524126617E-9
3999.999999998316         0                        0
3999.999999998316         50                       -1.4707968507801028E-8
0                         496.4960000000009        0
799.9999999982422         496.496                  -5.103435106396376E-8
4799.999999998335         0                        0
4799.999999998335         50                       -1.4923853118424237E-8
0                         645.7952000000012        0
799.9999999982422         645.7952                 -1.0826222280760348E-7
5599.999999998353         0                        0
5599.999999998353         50                       -1.5090181429743198E-8
0                         824.9542400000008        0
799.9999999982422         824.95424                -1.675266453369249E-7
6399.999999998371         0                        0
6399.999999998371         50                       -1.524940110741364E-8
799.9999999987915         1114.1220450622031       -2.2938498737098256E-7
0                         1118.5991439753502       0
7199.99999999839          0                        0
7199.99999999839          50                       -1.5410307457359128E-8
781.7627693459491         1531.9515216083526       -2.428477871544598E-7
0                         1584.0840731537774       0
7999.999999998408         0                        0
7999.999999998408         50                       -1.5574422075446115E-8
767.0709667351003         2100.052339826701        -2.2107779658632136E-7
0                         2190.7977733684256       0
8799.999999998427         0                        0
8799.999999998427         50                       -1.5741811188085825E-8
0                         2953.871797784037        0
816.3495062675902         2826.2761928641717       -2.597595226894211E-7
9599.999999998445         0                        0
9599.999999998445         50                       -1.5912309777460602E-8
832.0094048632673         3707.4344916005803       -2.8266142764796105E-7
0                         3927.715947133922        0
10399.999999998463        0                        0
10399.999999998463        50                       -1.6085766197226008E-8
0                         4746.946970992898        0
799.9639322235964         4711.656197659465        -3.1515027317310193E-7
11199.999999998483        0                        0
11199.999999998483        50                       -1.6262079057352762E-8
0                         5563.204709031168        0
799.9999999995179         5563.069385372282        -3.631135208264395E-7
11999.999999998501        0                        0
11999.999999998501        50                       -1.644122187873395E-8
0                         6353.466774504104        0
799.9999999995346         6353.368072169113        -3.9390169321631914E-7
12799.99999999852         0                        0
12799.99999999852         50                       -1.6623135128433713E-8
0                         7145.257338404617        0
799.9999999995512         7145.187333422622        -4.0709829102082873E-7
13599.999999998538        0                        0
13599.999999998538        50                       -1.680788758770077E-8
0                         7937.867294904695        0
799.9999999995623         7937.818885089188        -4.0268488034512725E-7
14399.999999998556        0                        0
14399.999999998556        50                       -1.6995580425776772E-8
0                         8730.929363666048        0
799.9999999995679         8730.896662711353        -3.836589788193855E-7
15199.999999998574        0                        0
15199.999999998574        50                       -1.7186126755649156E-8
0                         9524.245521643654        0
799.9999999995734         9524.223911838211        -3.5406527102220364E-7
15999.999999998594        0                        0
15999.999999998594        50                       -1.7379845642495373E-8
0                         10317.705979092167       0
799.9999999995734         10317.691991196083       -3.1786247928940464E-7
16799.99999999861         0                        0
16799.99999999861         50                       -1.7576597169820815E-8
0                         11111.24876356568        0
799.9999999995789         11111.239884404944       -2.7839048468773845E-7
17599.99999999863         0                        0
17599.99999999863         50                       -1.7776667260650945E-8
0                         11904.838535779005       0
799.99999999959           11904.833002160854       -2.3821805729700931E-7
18399.99999999865         0                        0
18399.99999999865         50                       -1.7980095418355657E-8
0                         12698.455055631186       0
799.9999999995956         12698.451665799243       -1.9919116987508245E-7
19199.99999999867         0                        0
19199.99999999867         50                       -1.8186979904676612E-8
0                         13492.086729577095       0
799.9999999996122         13492.084685868238       -1.6256095010809588E-7
19999.999999998687        0                        0
19999.999999998687        50                       -1.8397470592656582E-8
0                         14285.726936277473       0
799.9999999996122         14285.725722042333       -1.2912372981077984E-7
20799.999999998705        0                        0
20799.999999998705        50                       -1.8611813707415244E-8
0                         15079.371913260751       0
799.9999999996234         15079.371201342976       -9.934262610969124E-8
21599.999999998723        0                        0
21599.999999998723        50                       -1.8829918712402825E-8
0                         15873.019536486989       0
799.9999999996345         15873.019123987873       -7.344148788015947E-8
22399.99999999874         0                        0
22399.99999999874         50                       -1.9052129867516244E-8
0                         16666.66861582688        0
799.9999999996455         16666.668379280578       -5.1472511226538465E-8
23199.99999999876         0                        0
23199.99999999876         50                       -1.927856878852714E-8
0                         17460.318489815734       0
799.9999999996567         17460.31835537309        -3.336282457537689E-8
23999.999999998778        0                        0
23999.999999998778        50                       -1.9509341790092242E-8
0                         18253.96879390483        0
799.9999999996622         18253.968718065393       -1.894597477395161E-8
24799.999999998796        0                        0
24799.999999998796        50                       -1.9744647034980114E-8
0                         19047.6193288926         0
799.9999999996733         19047.61928637951        -7.983379270227399E-9
25599.999999998814        0                        0
25599.999999998814        50                       -1.9984636473590907E-8
0                         19841.26998686148        0
799.9999999996844         19841.269963145605       -1.7948052556145504E-10
26399.999999998832        0                        0
26399.999999998832        50                       -2.022954659828009E-8
0                         20634.920709813185       0
799.9999999996844         20634.92069665555        4.806924519724507E-9
27199.99999999885         0                        0
27199.99999999885         50                       -2.0479556630314902E-8
0                         21428.571466882328       0
799.9999999996955         21428.571459571725       7.353683257769101E-9
27999.99999999887         0                        0
27999.99999999887         50                       -2.073481733548627E-8
0                         22222.222241630665       0
799.9999999997011         22222.22223768271        7.867768152990812E-9
28799.99999999889         0                        0
28799.99999999889         50                       -2.0995580055673203E-8
0                         23015.873025643235       0
799.9999999997011         23015.87302334309        6.778772671292523E-9
29599.99999999891         0                        0
29599.99999999891         50                       -2.1262113331378207E-8
0                         23809.5238139669         0
799.9999999997177         23809.523813091753       4.533149197639691E-9
30399.999999998927        0                        0
30399.999999998927        50                       -2.1534607143254088E-8
0                         24603.17460485927        0
799.9999999997289         24603.174603964315       1.5889996845890781E-9
31199.999999998945        0                        0
31199.999999998945        50                       -2.1813254840488876E-8
0                         25396.825395139687       0
799.9999999997399         25396.825396035074       -1.5887417975049435E-9
31999.999999998963        0                        0
31999.999999998963        50                       -2.209840358410505E-8
0                         26190.47618603211        0
799.9999999997455         26190.476186907643       -4.532890165920401E-9
32799.99999999898         0                        0
32799.99999999898         50                       -2.2390319350879553E-8
0                         26984.126974355764       0
799.999999999751          26984.126976656327       -6.77851131538566E-9
33599.999999998996        0                        0
33599.999999998996        50                       -2.2689213992393675E-8
0                         27777.777758368346       0
799.9999999997622         27777.777762316713       -7.867503221749464E-9
34399.99999999902         0                        0
34399.99999999902         50                       -2.299546849733905E-8
0                         28571.428533116734       0
799.9999999997788         28571.428540427692       -7.3534133881737E-9
35199.99999999904         0                        0
35199.99999999904         50                       -2.3309374759801948E-8
0                         29365.07929018588        0
799.9999999997788         29365.079303343882       -4.806648190860238E-9
35999.999999999054        0                        0
35999.999999999054        50                       -2.3631229429671172E-8
0                         30158.7300131376         0
799.9999999997899         30158.730036853838       1.7976504675881156E-10
36799.999999999076        0                        0
36799.999999999076        50                       -2.3961435472665694E-8
0                         30952.380671106486       0
799.9999999997955         30952.380713619947       7.983673994642021E-9
37599.99999999909         0                        0
37599.99999999909         50                       -2.4300419358093413E-8
0                         31746.031206094216       0
799.9999999997955         31746.03128193407        1.8946282071659007E-8
38399.99999999911         0                        0
38399.99999999911         50                       -2.4648400574380693E-8
0                         32539.68151018333        0
799.9999999998176         32539.681644626362       3.3363147278580953E-8
39199.99999999913         0                        0
39199.99999999913         50                       -2.5005956627232227E-8
0                         33333.33138417217        0
799.9999999998288         33333.33162071887        5.1472852762568866E-8
39999.99999999915         0                        0
39999.99999999915         50                       -2.537351978950167E-8
0                         34126.98046351209        0
799.9999999998288         34126.98087601156        7.344185244689609E-8
40799.99999999916         0                        0
40799.99999999916         50                       -2.575149560660495E-8
799.9999999998398         34920.62879865647        9.934301891147925E-8
0                         34920.62808673832        0
41599.999999999185        0                        0
41599.999999999185        50                       -2.6140316747581677E-8
799.999999999851          35714.274277957134       1.2912415738125765E-7
0                         35714.27306372156        0
42399.9999999992          0                        0
42399.9999999992          50                       -2.654072325783385E-8
0                         36507.91327042197        0
799.9999999998621         36507.9153141312         1.6256142075851918E-7
43199.99999999922         0                        0
43199.99999999922         50                       -2.6953045016915196E-8
0                         37301.54494436784        0
799.9999999998676         37301.54833420018        1.991916943244081E-7
43999.99999999924         0                        0
43999.99999999924         50                       -2.7377997009199775E-8
0                         38095.16146422003        0
799.9999999998676         38095.16699783856        2.3821864956699106E-7
44799.99999999926         0                        0
44799.99999999926         50                       -2.7816189845147425E-8
0                         38888.751236433294       0
799.9999999998787         38888.76011559445        2.7839116339206215E-7
45599.99999999928         0                        0
45599.99999999928         50                       -2.8268239949617546E-8
0                         39682.294020906775       0
799.9999999998843         39682.30800880332        3.178632695384108E-7
46399.999999999294        0                        0
46399.999999999294        50                       -2.873494377413584E-8
0                         40475.75447835525        0
799.9999999998843         40475.776088161154       3.540662073992459E-7
47199.999999999316        0                        0
47199.999999999316        50                       -2.921693245240342E-8
0                         41269.07063633281        0
799.9999999998954         41269.103337288          3.8366011057181575E-7
47999.99999999933         0                        0
47999.99999999933         50                       -2.9715103799893924E-8
0                         42062.13270509416        0
799.9999999999176         42062.18111491014        4.0268628202390526E-7
48799.99999999935         0                        0
48799.99999999935         50                       -3.023023714656273E-8
0                         42854.7426615942         0
799.9999999999231         42854.8126665767         4.0710008764598267E-7
49599.99999999937         0                        0
49599.99999999937         50                       -3.076338370112711E-8
0                         43646.53322549466        0
799.9999999999287         43646.63192783015        3.9390412084858806E-7
50399.99999999939         0                        0
50399.99999999939         50                       -3.1315117148827594E-8
0                         44436.79529096755        0
799.9999999999397         44436.93061462694        3.6311704144958523E-7
51199.9999999994          0                        0
51199.9999999994          50                       -3.188691832161064E-8
0                         45253.05302900575        0
799.9639322240367         45288.34380233968        3.1515559359130446E-7
51999.999999999425        0                        0
51999.999999999425        50                       -3.247975669759054E-8
0                         46072.28405286463        0
832.009404863693          46292.565508398264       2.826672310032804E-7
52799.99999999944         0                        0
52799.99999999944         50                       -3.309433347396698E-8
816.3495062681039         47173.723807134804       2.597619228469564E-7
0                         47046.1282022146         0
53599.99999999946         0                        0
53599.99999999946         50                       -3.373244932460047E-8
0                         47809.20222663029        0
767.0709667357058         47899.947660172635       2.2107845248876097E-7
54399.99999999948         0                        0
54399.99999999948         50                       -3.4395084794356794E-8
781.7627693467396         48468.04847839133        2.4284824745067137E-7
0                         48415.915926845235       0
55199.9999999995          0                        0
55199.9999999995          50                       -3.50836142261296E-8
799.9999999999866         48885.87795493768        2.2938546361396537E-7
0                         48881.4008560241         0
55999.99999999952         0                        0
55999.99999999952         50                       -3.5799488883233255E-8
799.9999999999999         49175.04576              1.6752703313905264E-7
0                         49175.04575999986        0
56799.999999999534        0                        0
56799.999999999534        50                       -3.6544200387447796E-8
0                         49354.204799999934       0
799.9999999999999         49354.2048               1.0826257984910835E-7
57599.999999999556        0                        0
57599.999999999556        50                       -3.731933377989677E-8
0                         49503.50399999995        0
799.9999999999999         49503.504                5.103468206288283E-8
58399.99999999957         0                        0
58399.99999999957         50                       -3.812648396759188E-8
0                         49627.91999999996        0
799.9999999999999         49627.92                 6.352972620540318E-9
59199.99999999959         0                        0
59199.99999999959         50                       -3.8966915457478475E-8
0                         49731.59999999997        0
799.9999999999999         49731.6                  -1.902528753680599E-8
59999.99999999961         0                        0
59999.99999999961         50                       -3.984322797447681E-8
0                         49817.99999999998        0
799.9999999999999         49818                    -2.424099201368468E-8
60799.99999999963         0                        0
60799.99999999963         50                       -4.075605639427639E-8
0                         49889.999999999985       0
799.9999999999999         49890                    -1.485520344830273E-8
61599.99999999964         0                        0
61599.99999999964         50                       -4.1707502457135686E-8
0                         49949.99999999999        0
799.9999999999999         49950                    -1.86847265120464E-9
62399.999999999665        0                        0
62399.999999999665        50                       -4.26992426415339E-8
0                         50000                    0
799.9999999999999         50000                    0
63199.99999999967         0                        0
63199.99999999967         50                       -4.373230565623581E-8
1599.9999999999998        49950                    8.02202147478256E-9
1599.9999999999998        50000                    0
63999.999999999694        0                        0
63999.999999999694        50                       -4.480823258029616E-8
2399.9999999999995        49950                    1.2808211546946645E-8
2399.9999999999995        50000                    0
64799.99999999971         0                        0
64799.99999999971         50                       -4.592677461385762E-8
3199.9999999999995        49950                    1.4253675975680831E-8
3199.9999999999995        50000                    0
65599.99999999972         0                        0
65599.99999999972         50                       -4.708917629100786E-8
3999.999999999999         49950                    1.4707958733406531E-8
3999.999999999999         50000                    0
66399.99999999974         0                        0
66399.99999999974         50                       -4.8293124535100936E-8
4799.999999999999         49950                    1.4923842949172013E-8
4799.999999999999         50000                    0
67199.99999999975         0                        0
67199.99999999975         50                       -4.953760751308964E-8
5599.999999999998         49950                    1.5090171471053723E-8
5599.999999999998         50000                    0
67999.99999999978         0                        0
67999.99999999978         50                       -5.081776301378687E-8
6399.999999999998         49950                    1.524939133493736E-8
6399.999999999998         50000                    0
68799.9999999998          0                        0
68799.9999999998          50                       -5.2126912493417907E-8
7199.999999999997         49950                    1.5410297786338963E-8
7199.999999999997         50000                    0
69599.99999999981         0                        0
69599.99999999981         50                       -5.345413145174219E-8
7999.999999999997         49950                    1.557441242484656E-8
7999.999999999997         50000                    0
70399.99999999983         0                        0
70399.99999999983         50                       -5.4782701668588155E-8
8799.999999999996         49950                    1.5741801493270863E-8
8799.999999999996         50000                    0
71199.99999999983         0                        0
71199.99999999983         50                       -5.6087131134986886E-8
9599.999999999996         49950                    1.591229999108165E-8
9599.999999999996         50000                    0
71999.99999999985         0                        0
71999.99999999985         50                       -5.732850771793307E-8
10399.999999999996        49950.00000000001        1.6085756280246357E-8
10399.999999999996        50000.00000000001        0
72799.99999999987         0                        0
72799.99999999987         50                       -5.844665217828847E-8
11199.999999999996        49950.00000000001        1.626206889562528E-8
11199.999999999996        50000.00000000001        0
73599.99999999988         0                        0
73599.99999999988         50                       -5.93463205824448E-8
11999.999999999998        49950.00000000001        1.6441211580955248E-8
11999.999999999998        50000.00000000001        0
74399.9999999999          0                        0
74399.9999999999          50                       -5.987167381678834E-8
12799.999999999998        49950.00000000001        1.662312225983441E-8
12799.999999999998        50000.00000000001        0
75199.99999999991         0                        0
75199.99999999991         50                       -5.975664808921712E-8
13599.999999999998        49950                    1.680787484456431E-8
13599.999999999998        50000                    0
75999.99999999993         0                        0
75999.99999999993         50                       -5.8525556007949525E-8
14400                     49950                    1.6995573583103346E-8
14400                     50000                    0
76799.99999999994         0                        0
76799.99999999994         50                       -5.5302075403586644E-8
15200                     49950                    1.7186130964818772E-8
15200                     50000                    0
77599.99999999996         0                        0
77599.99999999996         50                       -4.85631104609578E-8
16000                     49950                    1.737982363759224E-8
16000                     50000                    0
78399.99999999997         0                        0
78399.99999999997         50                       -3.6734585950452925E-8
16800                     49950                    1.7576580651036377E-8
16800                     50000                    0
79199.99999999999         0                        0
79199.99999999999         50                       -2.7696002992334123E-8
17600.000000000004        49950                    1.777666386613312E-8
17600.000000000004        50000                    0
80000                     0                        0
80000                     50.000000000000036       -2.023142221385729E-7
18400.000000000004        49950                    1.7980067803663005E-8
18400.000000000004        50000                    0
79199.99999999999         110                      -5.515648624217443E-8
80000                     109.99999999999898       -8.650959000706984E-7
19200.000000000004        49950                    1.8186970502798605E-8
19200.000000000004        50000                    0
79199.99999999999         182                      -9.964787079871406E-8
79999.99999999999         181.9999999999999        -2.010167737735408E-6
20000.000000000004        49950                    1.8397488088850576E-8
20000.000000000004        50000                    0
79199.99999999999         268.4                    -1.983847534020358E-7
80000                     268.40000000000083       -3.5581936071108934E-6
20800.000000000004        49950                    1.8611732093279145E-8
20800.000000000004        50000                    0
79199.99999999999         372.08                   -4.0803931727454514E-7
80000                     372.08000000000123       -5.356868479709338E-6
21600.000000000007        49950                    1.882994703594449E-8
21600.000000000007        50000                    0
79199.99999999999         496.496                  -7.927655252955122E-7
80000                     496.4959999999984        -7.192997207265054E-6
22400.000000000007        49950                    1.9052128394454788E-8
22400.000000000007        50000                    0
79199.99999999999         645.7952                 -1.4009381220398173E-6
80000                     645.7951999999922        -8.82549567544585E-6
23200.000000000007        49950.00000000001        1.9278548569496473E-8
23200.000000000007        50000.00000000001        0
79199.99999999999         824.95424                -2.2353600644784256E-6
80000                     824.9542399999984        -1.0047003827063971E-5
24000.000000000007        49950.00000000001        1.9509332418827944E-8
24000.000000000007        50000.00000000001        0
79200                     1114.1220450616956       -3.5474801210561567E-6
80000                     1118.5991439737309       -1.0861738345786703E-5
24800.000000000007        49950.00000000001        1.9744612225450635E-8
24800.000000000007        50000.00000000001        0
79218.237230653           1531.9515216068849       -4.999924009484674E-6
80000                     1584.0840731503547       -1.0876209368166603E-5
25600.00000000001         49950.00000000001        1.9984645432006122E-8
25600.00000000001         50000.00000000001        0
79232.9290332641          2100.0523398237474       -5.909133205081789E-6
80000                     2190.79777336359         -1.0521663116086335E-5
26400.00000000001         49950.00000000001        2.0229531416016876E-8
26400.00000000001         50000.00000000001        0
80000                     2953.8717977788565       -9.64305416693E-6
79183.6504937318          2826.276192859754        -6.045068642367115E-6
27200.00000000001         49950                    2.0479533788504938E-8
27200.00000000001         50000                    0
79167.99059513603         3707.4344915955808       -5.973115213452199E-6
80000                     3927.7159471276914       -8.268553231787768E-6
28000.00000000001         49950                    2.0734795249982257E-8
28000.00000000001         50000                    0
80000                     4746.946970987154        -7.1345170474685225E-6
79200.03606777593         4711.656197655706        -5.586183783025082E-6
28800.00000000001         49950                    2.099562672253058E-8
28800.00000000001         50000                    0
79999.99999999999         5563.204709025877        -6.141190824874927E-6
79200.00000000001         5563.069385368881        -5.029499743286458E-6
29600.000000000015        49950                    2.1262099514701593E-8
29600.000000000015        50000                    0
79999.99999999999         6353.46677449894         -5.323201266487143E-6
79199.99999999999         6353.36807216576         -4.508463079200958E-6
30400.000000000015        49950                    2.1534569059240186E-8
30400.000000000015        50000                    0
80000                     7145.257338399568        -4.6278723598046444E-6
79200.00000000003         7145.187333419343        -4.020509714074927E-6
31200.000000000015        49950                    2.1813250532649368E-8