% Model:              ice_shelf_fwd5_5.mph
% Version:            COMSOL 5.5.0.359
% Date:               May 27 2021, 22:10
% Dimension:          2
% Nodes:              8080
% Expressions:        1
% Description:        Dependent variable v
% Length unit:        m
% x                       y                        v (1)
0                         0                        0
799.9999999982422         0                        0
0                         50.000000000000064       0
799.9999999982422         50                       -5.855561094207717E-9
0                         110.00000000000014       0
799.9999999982422         110                      -9.130791860976513E-9
1599.9999999982606        0                        0
1599.9999999982606        50                       -8.955683089723493E-9
0                         182.00000000000026       0
799.9999999982422         182                      -1.3747023200959174E-8
2399.9999999982792        0                        0
2399.9999999982792        50                       -1.058663794108237E-8
0                         268.4000000000004        0
799.9999999982422         268.4                    -2.4126835680854495E-8
3199.9999999982974        0                        0
3199.9999999982974        50                       -1.1253432410121182E-8
0                         372.0800000000006        0
799.9999999982422         372.08                   -4.370710397769559E-8
3999.999999998316         0                        0
3999.999999998316         50                       -1.1528426477249904E-8
0                         496.4960000000009        0
799.9999999982422         496.496                  -7.320913286008503E-8
4799.999999998335         0                        0
4799.999999998335         50                       -1.1666788691013895E-8
0                         645.7952000000012        0
799.9999999982422         645.7952                 -1.0967393107708988E-7
5599.999999998353         0                        0
5599.999999998353         50                       -1.1759443849544202E-8
0                         824.9542400000008        0
799.9999999982422         824.95424                -1.4737083634316676E-7
6399.999999998371         0                        0
6399.999999998371         50                       -1.1836756178183631E-8
799.9999999987915         1114.1220450622031       -1.8880226347845177E-7
0                         1118.5991439753502       0
7199.99999999839          0                        0
7199.99999999839          50                       -1.1909011719621199E-8
781.7627693459491         1531.9515216083526       -2.135477098768585E-7
0                         1584.0840731537774       0
7999.999999998408         0                        0
7999.999999998408         50                       -1.198002110163274E-8
767.0709667351003         2100.052339826701        -2.2141262999707052E-7
0                         2190.7977733684256       0
8799.999999998427         0                        0
8799.999999998427         50                       -1.2051430855272786E-8
0                         2953.871797784037        0
816.3495062675902         2826.2761928641717       -2.4500267365733896E-7
9599.999999998445         0                        0
9599.999999998445         50                       -1.2124088305659197E-8
832.0094048632673         3707.4344916005803       -2.609102577585496E-7
0                         3927.715947133922        0
10399.999999998463        0                        0
10399.999999998463        50                       -1.2198494411788425E-8
0                         4746.946970992898        0
799.9639322235964         4711.656197659465        -2.642786304617822E-7
11199.999999998483        0                        0
11199.999999998483        50                       -1.2274971334767648E-8
0                         5563.204709031168        0
799.9999999995179         5563.069385372282        -2.74096467295232E-7
11999.999999998501        0                        0
11999.999999998501        50                       -1.2353736953622048E-8
0                         6353.466774504104        0
799.9999999995346         6353.368072169113        -2.780978398822143E-7
12799.99999999852         0                        0
12799.99999999852         50                       -1.2434932897662699E-8
0                         7145.257338404617        0
799.9999999995512         7145.187333422622        -2.7605276403708136E-7
13599.999999998538        0                        0
13599.999999998538        50                       -1.2518687981527364E-8
0                         7937.867294904695        0
799.9999999995623         7937.818885089188        -2.679799119021134E-7
14399.999999998556        0                        0
14399.999999998556        50                       -1.2605032471414886E-8
0                         8730.929363666048        0
799.9999999995679         8730.896662711353        -2.5470174079369617E-7
15199.999999998574        0                        0
15199.999999998574        50                       -1.2694089272364063E-8
0                         9524.245521643654        0
799.9999999995734         9524.223911838211        -2.3742188027748795E-7
15999.999999998594        0                        0
15999.999999998594        50                       -1.2785816551394775E-8
0                         10317.705979092167       0
799.9999999995734         10317.691991196083       -2.1742253236438349E-7
16799.99999999861         0                        0
16799.99999999861         50                       -1.2880327477778921E-8
0                         11111.24876356568        0
799.9999999995789         11111.239884404944       -1.958819143011881E-7
17599.99999999863         0                        0
17599.99999999863         50                       -1.29776004985056E-8
0                         11904.838535779005       0
799.99999999959           11904.833002160854       -1.7378799952329332E-7
18399.99999999865         0                        0
18399.99999999865         50                       -1.3077692049473222E-8
0                         12698.455055631186       0
799.9999999995956         12698.451665799243       -1.519163943020799E-7
19199.99999999867         0                        0
19199.99999999867         50                       -1.3180619662523267E-8
0                         13492.086729577095       0
799.9999999996122         13492.084685868238       -1.3084423326502907E-7
19999.999999998687        0                        0
19999.999999998687        50                       -1.3286421376240697E-8
0                         14285.726936277473       0
799.9999999996122         14285.725722042333       -1.1098020152707573E-7
20799.999999998705        0                        0
20799.999999998705        50                       -1.3395153468410558E-8
0                         15079.371913260751       0
799.9999999996234         15079.371201342976       -9.259871494194254E-8
21599.999999998723        0                        0
21599.999999998723        50                       -1.3506780763236678E-8
0                         15873.019536486989       0
799.9999999996345         15873.019123987873       -7.587220896234337E-8
22399.99999999874         0                        0
22399.99999999874         50                       -1.3621463172907379E-8
0                         16666.66861582688        0
799.9999999996455         16666.668379280578       -6.089911595792113E-8
23199.99999999876         0                        0
23199.99999999876         50                       -1.3739128911243727E-8
0                         17460.318489815734       0
799.9999999996567         17460.31835537309        -4.772662698736477E-8
23999.999999998778        0                        0
23999.999999998778        50                       -1.3859906596522322E-8
0                         18253.96879390483        0
799.9999999996622         18253.968718065393       -3.6367154333187934E-8
24799.999999998796        0                        0
24799.999999998796        50                       -1.3983821916626743E-8
0                         19047.6193288926         0
799.9999999996733         19047.61928637951        -2.680686399893302E-8
25599.999999998814        0                        0
25599.999999998814        50                       -1.4110928468646296E-8
0                         19841.26998686148        0
799.9999999996844         19841.269963145605       -1.900639928288518E-8
26399.999999998832        0                        0
26399.999999998832        50                       -1.4241312061781721E-8
0                         20634.920709813185       0
799.9999999996844         20634.92069665555        -1.2900086024119816E-8
27199.99999999885         0                        0
27199.99999999885         50                       -1.4375049223966765E-8
0                         21428.571466882328       0
799.9999999996955         21428.571459571725       -8.414565031009927E-9
27999.99999999887         0                        0
27999.99999999887         50                       -1.4512141539005546E-8
0                         22222.222241630665       0
799.9999999997011         22222.22223768271        -5.534403273354715E-9
28799.99999999889         0                        0
28799.99999999889         50                       -1.4652811625306163E-8
0                         23015.873025643235       0
799.9999999997011         23015.87302334309        -3.658344158892563E-9
29599.99999999891         0                        0
29599.99999999891         50                       -1.4797004390797955E-8
0                         23809.5238139669         0
799.9999999997177         23809.523813091753       -2.09083383095125E-9
30399.999999998927        0                        0
30399.999999998927        50                       -1.4944896359432216E-8
0                         24603.17460485927        0
799.9999999997289         24603.174603964315       -6.783685319558814E-10
31199.999999998945        0                        0
31199.999999998945        50                       -1.5096557714142425E-8
0                         25396.825395139687       0
799.9999999997399         25396.825396035074       6.783881559310618E-10
31999.999999998963        0                        0
31999.999999998963        50                       -1.5252096468628986E-8
0                         26190.47618603211        0
799.9999999997455         26190.476186907643       2.090852204069654E-9
32799.99999999898         0                        0
32799.99999999898         50                       -1.541164033040923E-8
0                         26984.126974355764       0
799.999999999751          26984.126976656327       3.6583602237084983E-9
33599.999999998996        0                        0
33599.999999998996        50                       -1.5575269709687884E-8
0                         27777.777758368346       0
799.9999999997622         27777.777762316713       5.534417069669123E-9
34399.99999999902         0                        0
34399.99999999902         50                       -1.574317119478271E-8
0                         28571.428533116734       0
799.9999999997788         28571.428540427692       8.414579337108448E-9
35199.99999999904         0                        0
35199.99999999904         50                       -1.5915383357371727E-8
0                         29365.07929018588        0
799.9999999997788         29365.079303343882       1.2900103872238126E-8
35999.999999999054        0                        0
35999.999999999054        50                       -1.609217669355662E-8
0                         30158.7300131376         0
799.9999999997899         30158.730036853838       1.9006422038705035E-8
36799.999999999076        0                        0
36799.999999999076        50                       -1.6273586383754392E-8
0                         30952.380671106486       0
799.9999999997955         30952.380713619947       2.680689259893208E-8
37599.99999999909         0                        0
37599.99999999909         50                       -1.6459804967207163E-8
0                         31746.031206094216       0
799.9999999997955         31746.03128193407        3.63671897444989E-8
38399.99999999911         0                        0
38399.99999999911         50                       -1.6651053108139047E-8
0                         32539.68151018333        0
799.9999999998176         32539.681644626362       4.7726670394365036E-8
39199.99999999913         0                        0
39199.99999999913         50                       -1.6847405650758475E-8
0                         33333.33138417217        0
799.9999999998288         33333.33162071887        6.08991688897232E-8
39999.99999999915         0                        0
39999.99999999915         50                       -1.7049151607365165E-8
0                         34126.98046351209        0
799.9999999998288         34126.98087601156        7.587227342091323E-8
40799.99999999916         0                        0
40799.99999999916         50                       -1.7256380571606014E-8
799.9999999998398         34920.62879865647        9.259879355146833E-8
0                         34920.62808673832        0
41599.999999999185        0                        0
41599.999999999185        50                       -1.7469412965380005E-8
799.999999999851          35714.274277957134       1.1098029772408059E-7
0                         35714.27306372156        0
42399.9999999992          0                        0
42399.9999999992          50                       -1.7688369715820008E-8
0                         36507.91327042197        0
799.9999999998621         36507.9153141312         1.308443515548282E-7
43199.99999999922         0                        0
43199.99999999922         50                       -1.7913539624670142E-8
0                         37301.54494436784        0
799.9999999998676         37301.54833420018        1.51916540615248E-7
43999.99999999924         0                        0
43999.99999999924         50                       -1.8145139154945877E-8
0                         38095.16146422003        0
799.9999999998676         38095.16699783856        1.7378818172067253E-7
44799.99999999926         0                        0
44799.99999999926         50                       -1.8383440580695465E-8
0                         38888.751236433294       0
799.9999999998787         38888.76011559445        1.9588214290644272E-7
45599.99999999928         0                        0
45599.99999999928         50                       -1.8628696482391686E-8
0                         39682.294020906775       0
799.9999999998843         39682.30800880332        2.1742282166628997E-7
46399.999999999294        0                        0
46399.999999999294        50                       -1.8881208547606485E-8
0                         40475.75447835525        0
799.9999999998843         40475.776088161154       2.3742225007880093E-7
47199.999999999316        0                        0
47199.999999999316        50                       -1.9141265888799822E-8
0                         41269.07063633281        0
799.9999999998954         41269.103337288          2.547022193846389E-7
47999.99999999933         0                        0
47999.99999999933         50                       -1.9409203040331087E-8
0                         42062.13270509416        0
799.9999999999176         42062.18111491014        2.6798054160681197E-7
48799.99999999935         0                        0
48799.99999999935         50                       -1.9685349837044516E-8
0                         42854.7426615942         0
799.9999999999231         42854.8126665767         2.76053612922595E-7
49599.99999999937         0                        0
49599.99999999937         50                       -1.9970044959377402E-8
0                         43646.53322549466        0
799.9999999999287         43646.63192783015        2.7809903000239367E-7
50399.99999999939         0                        0
50399.99999999939         50                       -2.0263693863002943E-8
0                         44436.79529096755        0
799.9999999999397         44436.93061462694        2.740982502521411E-7
51199.9999999994          0                        0
51199.9999999994          50                       -2.0566680277533586E-8
0                         45253.05302900575        0
799.9639322240367         45288.34380233968        2.6428151389832563E-7
51999.999999999425        0                        0
51999.999999999425        50                       -2.0879423076922556E-8
0                         46072.28405286463        0
832.009404863693          46292.565508398264       2.609140786385198E-7
52799.99999999944         0                        0
52799.99999999944         50                       -2.1202360657303575E-8
816.3495062681039         47173.723807134804       2.45003566332305E-7
0                         47046.1282022146         0
53599.99999999946         0                        0
53599.99999999946         50                       -2.1535972874308122E-8
0                         47809.20222663029        0
767.0709667357058         47899.947660172635       2.2141207251944525E-7
54399.99999999948         0                        0
54399.99999999948         50                       -2.1880755127160484E-8
781.7627693467396         48468.04847839133        2.1354708692889338E-7
0                         48415.915926845235       0
55199.9999999995          0                        0
55199.9999999995          50                       -2.223722150945029E-8
799.9999999999866         48885.87795493768        1.8880191508687467E-7
0                         48881.4008560241         0
55999.99999999952         0                        0
55999.99999999952         50                       -2.2605929351997145E-8
799.9999999999999         49175.04576              1.4737062375685124E-7
0                         49175.04575999986        0
56799.999999999534        0                        0
56799.999999999534        50                       -2.2987457545374875E-8
0                         49354.204799999934       0
799.9999999999999         49354.2048               1.0967381574871549E-7
57599.999999999556        0                        0
57599.999999999556        50                       -2.3382425841477642E-8
0                         49503.50399999995        0
799.9999999999999         49503.504                7.320908996507025E-8
58399.99999999957         0                        0
58399.99999999957         50                       -2.3791462294908794E-8
0                         49627.91999999996        0
799.9999999999999         49627.92                 4.370710613488173E-8
59199.99999999959         0                        0
59199.99999999959         50                       -2.4215218037230134E-8
0                         49731.59999999997        0
799.9999999999999         49731.6                  2.4126857436525886E-8
59999.99999999961         0                        0
59999.99999999961         50                       -2.465446785670242E-8
0                         49817.99999999998        0
799.9999999999999         49818                    1.3747045477699633E-8
60799.99999999963         0                        0
60799.99999999963         50                       -2.5109836736560973E-8
0                         49889.999999999985       0
799.9999999999999         49890                    9.130804672570969E-9
61599.99999999964         0                        0
61599.99999999964         50                       -2.5582113658841076E-8
0                         49949.99999999999        0
799.9999999999999         49950                    5.8555638574656305E-9
62399.999999999665        0                        0
62399.999999999665        50                       -2.607205787419448E-8
0                         50000                    0
799.9999999999999         50000                    0
63199.99999999967         0                        0
63199.99999999967         50                       -2.6580384367530326E-8
1599.9999999999998        49950                    8.955681500050877E-9
1599.9999999999998        50000                    0
63999.999999999694        0                        0
63999.999999999694        50                       -2.7107854171932276E-8
2399.9999999999995        49950                    1.0586634296819464E-8
2399.9999999999995        50000                    0
64799.99999999971         0                        0
64799.99999999971         50                       -2.7655022439867775E-8
3199.9999999999995        49950                    1.125342840703616E-8
3199.9999999999995        50000                    0
65599.99999999972         0                        0
65599.99999999972         50                       -2.822259632223601E-8
3999.999999999999         49950                    1.1528422180023474E-8
3999.999999999999         50000                    0
66399.99999999974         0                        0
66399.99999999974         50                       -2.8810760439819167E-8
4799.999999999999         49950                    1.1666784146222628E-8
4799.999999999999         50000                    0
67199.99999999975         0                        0
67199.99999999975         50                       -2.9419723514503336E-8
5599.999999999998         49950                    1.1759439087940348E-8
5599.999999999998         50000                    0
67999.99999999978         0                        0
67999.99999999978         50                       -3.00490171508699E-8
6399.999999999998         49950                    1.183675117283128E-8
6399.999999999998         50000                    0
68799.9999999998          0                        0
68799.9999999998          50                       -3.0697519491898916E-8
7199.999999999997         49950                    1.1909006433384263E-8
7199.999999999997         50000                    0
69599.99999999981         0                        0
69599.99999999981         50                       -3.136295068692467E-8
7999.999999999997         49950                    1.1980015504853572E-8
7999.999999999997         50000                    0
70399.99999999983         0                        0
70399.99999999983         50                       -3.2041208911387767E-8
8799.999999999996         49950                    1.205142492626418E-8
8799.999999999996         50000                    0
71199.99999999983         0                        0
71199.99999999983         50                       -3.2725256196582205E-8
9599.999999999996         49950                    1.2124082027213565E-8
9599.999999999996         50000                    0
71999.99999999985         0                        0
71999.99999999985         50                       -3.340321837821161E-8
10399.999999999996        49950.00000000001        1.2198487762103504E-8
10399.999999999996        50000.00000000001        0
72799.99999999987         0                        0
72799.99999999987         50                       -3.405499696983643E-8
11199.999999999996        49950.00000000001        1.2274964259735157E-8
11199.999999999996        50000.00000000001        0
73599.99999999988         0                        0
73599.99999999988         50                       -3.4645933870665094E-8
11999.999999999998        49950.00000000001        1.2353729308646422E-8
11999.999999999998        50000.00000000001        0
74399.9999999999          0                        0
74399.9999999999          50                       -3.51143167179602E-8
12799.999999999998        49950.00000000001        1.2434924317594525E-8
12799.999999999998        50000.00000000001        0
75199.99999999991         0                        0
75199.99999999991         50                       -3.534542857466989E-8
13599.999999999998        49950                    1.2518679399722865E-8
13599.999999999998        50000                    0
75999.99999999993         0                        0
75999.99999999993         50                       -3.511600041273862E-8
14400                     49950                    1.2605025204473412E-8
14400                     50000                    0
76799.99999999994         0                        0
76799.99999999994         50                       -3.3980749823288835E-8
15200                     49950                    1.2694083536412753E-8
15200                     50000                    0
77599.99999999996         0                        0
77599.99999999996         50                       -3.1118528198978175E-8
16000                     49950                    1.278580631727641E-8
16000                     50000                    0
78399.99999999997         0                        0
78399.99999999997         50                       -2.5778003986221426E-8
16800                     49950                    1.2880313366446081E-8
16800                     50000                    0
79199.99999999999         0                        0
79199.99999999999         50                       -2.382635299145258E-8
17600.000000000004        49950                    1.2977592322547616E-8
17600.000000000004        50000                    0
80000                     0                        0
80000                     50.000000000000036       -1.3873070019112591E-7
18400.000000000004        49950                    1.3077676602192905E-8
18400.000000000004        50000                    0
79199.99999999999         110                      -5.97844012534979E-8
80000                     109.99999999999898       -5.74956341041187E-7
19200.000000000004        49950                    1.318062700952015E-8
19200.000000000004        50000                    0
79199.99999999999         182                      -1.237039515452821E-7
79999.99999999999         181.9999999999999        -1.2854511550751705E-6
20000.000000000004        49950                    1.3286394959013033E-8
20000.000000000004        50000                    0
79199.99999999999         268.4                    -2.3882476861180073E-7
80000                     268.40000000000083       -2.1447507865061392E-6
20800.000000000004        49950                    1.3395148842553044E-8
20800.000000000004        50000                    0
79199.99999999999         372.08                   -4.41745910230599E-7
80000                     372.08000000000123       -3.0315291867650485E-6
21600.000000000007        49950                    1.3506789769861414E-8
21600.000000000007        50000                    0
79199.99999999999         496.496                  -7.701512395625153E-7
80000                     496.4959999999984        -3.861873843079763E-6
22400.000000000007        49950                    1.3621439867448947E-8
22400.000000000007        50000                    0
79199.99999999999         645.7952                 -1.2432374571115647E-6
80000                     645.7951999999922        -4.585330336062538E-6
23200.000000000007        49950.00000000001        1.3739126057708757E-8
23200.000000000007        50000.00000000001        0
79199.99999999999         824.95424                -1.8439941208187519E-6
80000                     824.9542399999984        -5.17887367056895E-6
24000.000000000007        49950.00000000001        1.3859905331629177E-8
24000.000000000007        50000.00000000001        0
79200                     1114.1220450616956       -2.72400396942246E-6
80000                     1118.5991439737309       -5.751959046328541E-6
24800.000000000007        49950.00000000001        1.3983804735459394E-8
24800.000000000007        50000.00000000001        0
79218.237230653           1531.9515216068849       -3.6750632622082207E-6
80000                     1584.0840731503547       -6.102296810601432E-6
25600.00000000001         49950.00000000001        1.411093466132882E-8
25600.00000000001         50000.00000000001        0
79232.9290332641          2100.0523398237474       -4.331533080443976E-6
80000                     2190.79777336359         -6.06809606700419E-6
26400.00000000001         49950.00000000001        1.4241302088667896E-8
26400.00000000001         50000.00000000001        0
80000                     2953.8717977788565       -5.7182420505132075E-6
79183.6504937318          2826.276192859754        -4.4718793581010716E-6
27200.00000000001         49950                    1.4375035925486842E-8
27200.00000000001         50000                    0
79167.99059513603         3707.4344915955808       -4.346438493501694E-6
80000                     3927.7159471276914       -5.140973908680947E-6
28000.00000000001         49950                    1.4512159180695185E-8
28000.00000000001         50000                    0
80000                     4746.946970987154        -4.659510543563781E-6
79200.03606777593         4711.656197655706        -4.0647672747512565E-6
28800.00000000001         49950                    1.4652804503518033E-8
28800.00000000001         50000                    0
79999.99999999999         5563.204709025877        -4.2162108444492615E-6
79200.00000000001         5563.069385368881        -3.756867582111526E-6
29600.000000000015        49950                    1.4796999956123004E-8
29600.000000000015        50000                    0
79999.99999999999         6353.46677449894         -3.824817008442751E-6
79199.99999999999         6353.36807216576         -3.469032229859811E-6
30400.000000000015        49950                    1.4944895196417265E-8
30400.000000000015        50000                    0
80000                     7145.257338399568        -3.466821005207041E-6
79200.00000000003         7145.187333419343        -3.1887277598423705E-6
31200.000000000015        49950                    1.509655662649114E-8